   2   2   0   0
  0.2016476E+02  0.3849279E-09  0.3849279E-09  0.3849279E-09  0.5000000E-15
   1.0000000000000000E-004
  CAR 
 unknown system                          
     21.76445248     -7.52946894  301      5.85113996      1.00000000
     -7.529  0.0000E+00  0.0000E+00
     -7.432  0.0000E+00  0.0000E+00
     -7.334  0.0000E+00  0.0000E+00
     -7.237  0.0000E+00  0.0000E+00
     -7.139  0.0000E+00  0.0000E+00
     -7.041  0.0000E+00  0.0000E+00
     -6.944  0.0000E+00  0.0000E+00
     -6.846  0.0000E+00  0.0000E+00
     -6.748  0.0000E+00  0.0000E+00
     -6.651  0.0000E+00  0.0000E+00
     -6.553  0.0000E+00  0.0000E+00
     -6.455  0.9292E-17  0.9074E-18
     -6.358  0.1742E-09  0.1701E-10
     -6.260  0.2214E-05  0.2163E-06
     -6.162  0.4523E-04  0.4633E-05
     -6.065  0.1191E-03  0.1626E-04
     -5.967  0.5670E-03  0.7163E-04
     -5.869  0.1123E-03  0.8259E-04
     -5.772  0.3769E-03  0.1194E-03
     -5.674  0.3815E-03  0.1566E-03
     -5.577  0.1327E-02  0.2863E-03
     -5.479  0.3821E-03  0.3236E-03
     -5.381  0.8222E-04  0.3316E-03
     -5.284  0.2944E-03  0.3603E-03
     -5.186  0.1376E-02  0.4947E-03
     -5.088  0.1254E-02  0.6172E-03
     -4.991  0.4384E-03  0.6600E-03
     -4.893  0.9726E-03  0.7550E-03
     -4.795  0.1089E-02  0.8613E-03
     -4.698  0.6730E-03  0.9270E-03
     -4.600  0.2177E-03  0.9483E-03
     -4.502  0.5905E-03  0.1006E-02
     -4.405  0.3216E-02  0.1320E-02
     -4.307  0.9420E-03  0.1412E-02
     -4.209  0.3306E-03  0.1444E-02
     -4.112  0.2316E-02  0.1670E-02
     -4.014  0.1258E-02  0.1793E-02
     -3.917  0.6815E-03  0.1860E-02
     -3.819  0.5431E-03  0.1913E-02
     -3.721  0.2343E-02  0.2142E-02
     -3.624  0.3779E-02  0.2511E-02
     -3.526  0.1410E-02  0.2648E-02
     -3.428  0.1534E-03  0.2663E-02
     -3.331  0.2966E-02  0.2953E-02
     -3.233  0.9440E-03  0.3045E-02
     -3.135  0.1591E-05  0.3045E-02
     -3.038  0.3965E-03  0.3084E-02
     -2.940  0.2946E-02  0.3372E-02
     -2.842  0.1272E-02  0.3496E-02
     -2.745  0.1766E-02  0.3668E-02
     -2.647  0.3520E-04  0.3672E-02
     -2.550  0.8195E-03  0.3752E-02
     -2.452  0.5186E-03  0.3802E-02
     -2.354  0.2191E-03  0.3824E-02
     -2.257  0.1093E-02  0.3930E-02
     -2.159  0.5499E-03  0.3984E-02
     -2.061  0.2233E-03  0.4006E-02
     -1.964  0.5614E-03  0.4061E-02
     -1.866  0.5211E-04  0.4066E-02
     -1.768  0.1458E-03  0.4080E-02
     -1.671  0.1117E-02  0.4189E-02
     -1.573  0.8573E-04  0.4198E-02
     -1.475  0.7159E-04  0.4205E-02
     -1.378  0.1116E-02  0.4313E-02
     -1.280  0.1585E-02  0.4468E-02
     -1.182  0.2358E-02  0.4699E-02
     -1.085  0.4150E-02  0.5104E-02
     -0.987  0.1531E-02  0.5253E-02
     -0.890  0.1050E-02  0.5356E-02
     -0.792  0.1841E-02  0.5536E-02
     -0.694  0.2226E-02  0.5753E-02
     -0.597  0.1116E-02  0.5862E-02
     -0.499  0.1487E-02  0.6007E-02
     -0.401  0.1392E-02  0.6143E-02
     -0.304  0.1696E-02  0.6309E-02
     -0.206  0.2192E-03  0.6330E-02
     -0.108  0.2131E-02  0.6538E-02
     -0.011  0.4158E-03  0.6579E-02
      0.087  0.3352E-06  0.6579E-02
      0.185  0.2568E-07  0.6579E-02
      0.282  0.1369E-03  0.6592E-02
      0.380  0.2747E-02  0.6860E-02
      0.478  0.1602E-02  0.7017E-02
      0.575  0.3382E-04  0.7020E-02
      0.673  0.3834E-03  0.7058E-02
      0.770  0.5761E-03  0.7114E-02
      0.868  0.3492E-04  0.7117E-02
      0.966  0.7789E-03  0.7193E-02
      1.063  0.5605E-03  0.7248E-02
      1.161  0.2435E-05  0.7248E-02
      1.259  0.4034E-03  0.7288E-02
      1.356  0.1542E-02  0.7438E-02
      1.454  0.7946E-04  0.7446E-02
      1.552  0.1257E-02  0.7569E-02
      1.649  0.4914E-02  0.8049E-02
      1.747  0.2950E-02  0.8337E-02
      1.845  0.1008E-02  0.8435E-02
      1.942  0.2272E-02  0.8657E-02
      2.040  0.2418E-02  0.8893E-02
      2.138  0.8919E-03  0.8980E-02
      2.235  0.9363E-03  0.9072E-02
      2.333  0.3016E-02  0.9366E-02
      2.430  0.1066E-02  0.9470E-02
      2.528  0.3152E-02  0.9778E-02
      2.626  0.4885E-02  0.1026E-01
      2.723  0.3718E-02  0.1062E-01
      2.821  0.1221E-02  0.1074E-01
      2.919  0.1922E-02  0.1093E-01
      3.016  0.2542E-02  0.1117E-01
      3.114  0.3336E-02  0.1150E-01
      3.212  0.2077E-02  0.1170E-01
      3.309  0.3364E-02  0.1203E-01
      3.407  0.3187E-02  0.1234E-01
      3.505  0.2571E-02  0.1259E-01
      3.602  0.2937E-02  0.1288E-01
      3.700  0.4372E-02  0.1331E-01
      3.798  0.3397E-02  0.1364E-01
      3.895  0.8969E-04  0.1365E-01
      3.993  0.6267E-03  0.1371E-01
      4.090  0.4137E-02  0.1411E-01
      4.188  0.3318E-02  0.1444E-01
      4.286  0.2474E-02  0.1468E-01
      4.383  0.6984E-03  0.1475E-01
      4.481  0.2108E-02  0.1495E-01
      4.579  0.3187E-02  0.1526E-01
      4.676  0.2714E-02  0.1553E-01
      4.774  0.1737E-03  0.1554E-01
      4.872  0.8529E-05  0.1555E-01
      4.969  0.1068E-02  0.1565E-01
      5.067  0.1777E-02  0.1582E-01
      5.165  0.6872E-04  0.1583E-01
      5.262  0.3002E-06  0.1583E-01
      5.360  0.3233E-03  0.1586E-01
      5.458  0.1206E-02  0.1598E-01
      5.555  0.5066E-04  0.1598E-01
      5.653  0.1355E-03  0.1600E-01
      5.750  0.2627E-04  0.1600E-01
      5.848  0.1359E-07  0.1600E-01
      5.946  0.5362E-14  0.1600E-01
      6.043  0.4111E-11  0.1600E-01
      6.141  0.8204E-06  0.1600E-01
      6.239  0.1605E-03  0.1602E-01
      6.336  0.2196E-03  0.1604E-01
      6.434  0.3979E-03  0.1608E-01
      6.532  0.5579E-03  0.1613E-01
      6.629  0.9774E-03  0.1623E-01
      6.727  0.7251E-03  0.1630E-01
      6.825  0.8180E-03  0.1638E-01
      6.922  0.6183E-03  0.1644E-01
      7.020  0.2632E-03  0.1646E-01
      7.117  0.1232E-02  0.1658E-01
      7.215  0.1059E-02  0.1669E-01
      7.313  0.3124E-02  0.1699E-01
      7.410  0.1457E-02  0.1713E-01
      7.508  0.2022E-02  0.1733E-01
      7.606  0.1127E-02  0.1744E-01
      7.703  0.3347E-02  0.1777E-01
      7.801  0.3960E-02  0.1815E-01
      7.899  0.5089E-02  0.1865E-01
      7.996  0.3009E-02  0.1895E-01
      8.094  0.1279E-02  0.1907E-01
      8.192  0.2652E-02  0.1933E-01
      8.289  0.1256E-02  0.1945E-01
      8.387  0.2907E-02  0.1974E-01
      8.485  0.4194E-02  0.2015E-01
      8.582  0.2251E-02  0.2037E-01
      8.680  0.1815E-02  0.2054E-01
      8.777  0.1212E-02  0.2066E-01
      8.875  0.3587E-02  0.2101E-01
      8.973  0.8607E-03  0.2110E-01
      9.070  0.5015E-02  0.2158E-01
      9.168  0.5133E-02  0.2209E-01
      9.266  0.4649E-02  0.2254E-01
      9.363  0.3875E-02  0.2292E-01
      9.461  0.3470E-02  0.2326E-01
      9.559  0.3708E-02  0.2362E-01
      9.656  0.2696E-02  0.2388E-01
      9.754  0.1865E-02  0.2406E-01
      9.852  0.2489E-02  0.2431E-01
      9.949  0.1423E-02  0.2445E-01
     10.047  0.2296E-02  0.2467E-01
     10.145  0.2643E-02  0.2493E-01
     10.242  0.1947E-02  0.2512E-01
     10.340  0.7483E-03  0.2519E-01
     10.437  0.2626E-02  0.2545E-01
     10.535  0.4673E-02  0.2590E-01
     10.633  0.5423E-02  0.2643E-01
     10.730  0.3717E-03  0.2647E-01
     10.828  0.1599E-02  0.2663E-01
     10.926  0.3104E-02  0.2693E-01
     11.023  0.5251E-02  0.2744E-01
     11.121  0.3431E-02  0.2778E-01
     11.219  0.6227E-03  0.2784E-01
     11.316  0.8273E-03  0.2792E-01
     11.414  0.1718E-02  0.2809E-01
     11.512  0.9636E-03  0.2818E-01
     11.609  0.1111E-02  0.2829E-01
     11.707  0.3080E-02  0.2859E-01
     11.805  0.1224E-02  0.2871E-01
     11.902  0.1209E-02  0.2883E-01
     12.000  0.2208E-02  0.2904E-01
     12.097  0.2754E-02  0.2931E-01
     12.195  0.4297E-02  0.2973E-01
     12.293  0.1795E-02  0.2991E-01
     12.390  0.1162E-02  0.3002E-01
     12.488  0.2028E-02  0.3022E-01
     12.586  0.2262E-02  0.3044E-01
     12.683  0.1440E-02  0.3058E-01
     12.781  0.4635E-02  0.3103E-01
     12.879  0.3272E-02  0.3135E-01
     12.976  0.4302E-02  0.3177E-01
     13.074  0.5765E-02  0.3234E-01
     13.172  0.4533E-02  0.3278E-01
     13.269  0.7074E-03  0.3285E-01
     13.367  0.1269E-02  0.3297E-01
     13.465  0.7291E-03  0.3304E-01
     13.562  0.6969E-03  0.3311E-01
     13.660  0.1860E-02  0.3329E-01
     13.757  0.1126E-02  0.3340E-01
     13.855  0.8044E-03  0.3348E-01
     13.953  0.2202E-02  0.3370E-01
     14.050  0.2290E-02  0.3392E-01
     14.148  0.2505E-02  0.3416E-01
     14.246  0.2621E-02  0.3442E-01
     14.343  0.2175E-02  0.3463E-01
     14.441  0.2516E-02  0.3488E-01
     14.539  0.1752E-02  0.3505E-01
     14.636  0.3909E-02  0.3543E-01
     14.734  0.4183E-02  0.3584E-01
     14.832  0.1462E-02  0.3598E-01
     14.929  0.5005E-02  0.3647E-01
     15.027  0.8279E-02  0.3728E-01
     15.124  0.2901E-02  0.3756E-01
     15.222  0.1664E-02  0.3772E-01
     15.320  0.1261E-02  0.3785E-01
     15.417  0.2826E-02  0.3812E-01
     15.515  0.3109E-02  0.3843E-01
     15.613  0.2977E-02  0.3872E-01
     15.710  0.6702E-03  0.3878E-01
     15.808  0.7185E-03  0.3885E-01
     15.906  0.4060E-02  0.3925E-01
     16.003  0.1186E-02  0.3937E-01
     16.101  0.6073E-03  0.3943E-01
     16.199  0.9017E-03  0.3951E-01
     16.296  0.1678E-02  0.3968E-01
     16.394  0.4755E-02  0.4014E-01
     16.492  0.2807E-02  0.4042E-01
     16.589  0.1387E-02  0.4055E-01
     16.687  0.1407E-02  0.4069E-01
     16.784  0.2994E-02  0.4098E-01
     16.882  0.3806E-02  0.4135E-01
     16.980  0.5199E-02  0.4186E-01
     17.077  0.2198E-02  0.4207E-01
     17.175  0.3368E-02  0.4240E-01
     17.273  0.1558E-02  0.4256E-01
     17.370  0.2357E-02  0.4279E-01
     17.468  0.3999E-02  0.4318E-01
     17.566  0.3249E-02  0.4349E-01
     17.663  0.4106E-02  0.4389E-01
     17.761  0.4952E-02  0.4438E-01
     17.859  0.1886E-02  0.4456E-01
     17.956  0.3302E-04  0.4457E-01
     18.054  0.6838E-05  0.4457E-01
     18.152  0.1196E-02  0.4468E-01
     18.249  0.1758E-02  0.4485E-01
     18.347  0.5061E-03  0.4490E-01
     18.444  0.3780E-02  0.4527E-01
     18.542  0.3361E-02  0.4560E-01
     18.640  0.2186E-02  0.4581E-01
     18.737  0.2302E-02  0.4604E-01
     18.835  0.4595E-03  0.4608E-01
     18.933  0.1856E-02  0.4627E-01
     19.030  0.2338E-02  0.4649E-01
     19.128  0.1015E-02  0.4659E-01
     19.226  0.3702E-02  0.4695E-01
     19.323  0.2803E-02  0.4723E-01
     19.421  0.1122E-02  0.4734E-01
     19.519  0.1447E-02  0.4748E-01
     19.616  0.2409E-02  0.4771E-01
     19.714  0.3476E-03  0.4775E-01
     19.812  0.1184E-02  0.4786E-01
     19.909  0.6704E-03  0.4793E-01
     20.007  0.5175E-04  0.4793E-01
     20.104  0.9435E-08  0.4793E-01
     20.202  0.2369E-13  0.4793E-01
     20.300  0.5589E-07  0.4793E-01
     20.397  0.1062E-03  0.4794E-01
     20.495  0.5415E-03  0.4800E-01
     20.593  0.2657E-04  0.4800E-01
     20.690  0.2091E-08  0.4800E-01
     20.788  0.1115E-15  0.4800E-01
     20.886  0.0000E+00  0.4800E-01
     20.983  0.0000E+00  0.4800E-01
     21.081  0.0000E+00  0.4800E-01
     21.179  0.0000E+00  0.4800E-01
     21.276  0.0000E+00  0.4800E-01
     21.374  0.0000E+00  0.4800E-01
     21.472  0.0000E+00  0.4800E-01
     21.569  0.0000E+00  0.4800E-01
     21.667  0.0000E+00  0.4800E-01
     21.764  0.0000E+00  0.4800E-01
