    2    2  500    1
  0.2016476E+02  0.3849279E-09  0.3849279E-09  0.3849279E-09  0.5000000E-15
   1.0000000000000000E-004
  CAR 
 unknown system                          
      8     35     12

  0.1262379E-14  0.1262379E-14  0.1262379E-14  0.1371742E-02
      1         -6.197927   1.000000
      2          5.617041   1.000000
      3          5.617041   1.000000
      4          5.617041   1.000000
      5          8.173704   0.000000
      6          8.173704   0.000000
      7          8.173704   0.000000
      8          8.751802   0.000000
      9         13.326123   0.000000
     10         13.326123   0.000000
     11         13.496455   0.000000
     12         16.799711   0.000000

  0.1111111E+00  0.1267825E-14  0.1269308E-14  0.1097394E-01
      1         -6.039327   1.000000
      2          4.278033   1.000000
      3          5.384837   1.000000
      4          5.384837   1.000000
      5          8.106679   0.000000
      6          8.515992   0.000000
      7          8.515992   0.000000
      8          9.909263   0.000000
      9         12.920078   0.000000
     10         12.920078   0.000000
     11         14.133918   0.000000
     12         16.316646   0.000000

  0.2222222E+00  0.1243275E-14  0.1247983E-14  0.1097394E-01
      1         -5.573534   1.000000
      2          2.228408   1.000000
      3          4.968046   1.000000
      4          4.968046   1.000000
      5          7.682223   0.000000
      6          9.040183   0.000000
      7          9.040183   0.000000
      8         11.890693   0.000000
      9         12.696553   0.000000
     10         12.696553   0.000000
     11         14.648117   0.000000
     12         16.809917   0.000000

  0.3333333E+00  0.1254472E-14  0.1247473E-14  0.1097394E-01
      1         -4.847816   1.000000
      2          0.347525   1.000000
      3          4.634480   1.000000
      4          4.634480   1.000000
      5          7.310130   0.000000
      6          9.120349   0.000000
      7          9.120349   0.000000
      8         13.401621   0.000000
      9         13.571798   0.000000
     10         13.571798   0.000000
     11         14.599468   0.000000
     12         19.046914   0.000000

  0.4444444E+00  0.1289293E-14  0.1274720E-14  0.1097394E-01
      1         -4.076666   1.000000
      2         -1.019059   1.000000
      3          4.460447   1.000000
      4          4.460447   1.000000
      5          7.109722   0.000000
      6          8.990107   0.000000
      7          8.990107   0.000000
      8         13.356459   0.000000
      9         15.321050   0.000000
     10         15.321050   0.000000
     11         16.255204   0.000000
     12         17.720686   0.000000

  0.1111111E+00  0.1111111E+00  0.1259983E-14  0.8230453E-02
      1         -5.985997   1.000000
      2          4.488530   1.000000
      3          4.956445   1.000000
      4          4.956445   1.000000
      5          7.728640   0.000000
      6          9.094333   0.000000
      7          9.094333   0.000000
      8          9.722969   0.000000
      9         12.225749   0.000000
     10         13.561823   0.000000
     11         14.360512   0.000000
     12         17.169056   0.000000

  0.2222222E+00  0.1111111E+00  0.1268290E-14  0.3292181E-01
      1         -5.620565   1.000000
      2          2.832933   1.000000
      3          4.491616   1.000000
      4          4.617161   1.000000
      5          7.814190   0.000000
      6          9.081012   0.000000
      7          9.798391   0.000000
      8         10.487680   0.000000
      9         12.551854   0.000000
     10         13.610697   0.000000
     11         15.328511   0.000000
     12         16.846171   0.000000

  0.3333333E+00  0.1111111E+00  0.1246964E-14  0.3292181E-01
      1         -4.972468   1.000000
      2          0.958365   1.000000
      3          4.118113   1.000000
      4          4.190596   1.000000
      5          7.916663   0.000000
      6          9.071669   0.000000
      7          9.975695   0.000000
      8         10.936782   0.000000
      9         14.283617   0.000000
     10         14.344351   0.000000
     11         15.132914   0.000000
     12         18.424628   0.000000

  0.4444444E+00  0.1111111E+00  0.1246455E-14  0.3292181E-01
      1         -4.164902   1.000000
      2         -0.600753   1.000000
      3          3.689552   1.000000
      4          4.108045   1.000000
      5          7.785227   0.000000
      6          8.998198   0.000000
      7          9.709199   0.000000
      8         12.351583   0.000000
      9         14.554927   0.000000
     10         15.866033   0.000000
     11         16.524337   0.000000
     12         17.454103   0.000000

 -0.4444444E+00  0.1111111E+00  0.1278284E-14  0.3292181E-01
      1         -3.797461   1.000000
      2         -1.158544   1.000000
      3          3.436644   1.000000
      4          4.243854   1.000000
      5          7.781836   0.000000
      6          9.028471   0.000000
      7          9.452106   0.000000
      8         13.731467   0.000000
      9         14.599091   0.000000
     10         14.973868   0.000000
     11         16.438409   0.000000
     12         18.167421   0.000000

 -0.3333333E+00  0.1111111E+00  0.1305530E-14  0.3292181E-01
      1         -4.436534   1.000000
      2         -0.134379   1.000000
      3          3.406333   1.000000
      4          4.567230   1.000000
      5          7.960624   0.000000
      6          9.252898   0.000000
      7          9.327724   0.000000
      8         12.937366   0.000000
      9         13.064646   0.000000
     10         14.895417   0.000000
     11         16.716817   0.000000
     12         17.552842   0.000000

 -0.2222222E+00  0.1111111E+00  0.1249510E-14  0.3292181E-01
      1         -5.218529   1.000000
      2          1.562782   1.000000
      3          3.639688   1.000000
      4          5.008345   1.000000
      5          8.280574   0.000000
      6          9.108851   0.000000
      7          9.384620   0.000000
      8         11.624282   0.000000
      9         11.989886   0.000000
     10         14.717214   0.000000
     11         15.376684   0.000000
     12         17.527680   0.000000

 -0.1111111E+00  0.1111111E+00  0.1249001E-14  0.1646091E-01
      1         -5.777463   1.000000
      2          3.300228   1.000000
      3          4.284460   1.000000
      4          5.395009   1.000000
      5          8.556790   0.000000
      6          8.610390   0.000000
      7          8.809850   0.000000
      8         10.871798   0.000000
      9         12.107968   0.000000
     10         13.343131   0.000000
     11         14.992360   0.000000
     12         16.674224   0.000000

  0.2222222E+00  0.2222222E+00  0.1257587E-14  0.8230453E-02
      1         -5.356168   1.000000
      2          2.590848   1.000000
      3          3.980609   1.000000
      4          3.980609   1.000000
      5          6.942894   0.000000
      6          9.159877   0.000000
      7         10.830457   0.000000
      8         10.830457   0.000000
      9         12.945663   0.000000
     10         14.267889   0.000000
     11         16.348688   0.000000
     12         18.215273   0.000000

  0.3333333E+00  0.2222222E+00  0.1246455E-14  0.3292181E-01
      1         -4.797305   1.000000
      2          1.281986   1.000000
      3          3.364086   1.000000
      4          3.643891   1.000000
      5          7.095966   0.000000
      6          8.790150   0.000000
      7         11.062177   0.000000
      8         11.403767   0.000000
      9         14.708934   0.000000
     10         14.949023   0.000000
     11         16.910225   0.000000
     12         18.603378   0.000000

  0.4444444E+00  0.2222222E+00  0.1245946E-14  0.3292181E-01
      1         -4.014666   1.000000
      2         -0.158544   1.000000
      3          2.634399   1.000000
      4          3.546598   1.000000
      5          7.281182   0.000000
      6          9.795534   0.000000
      7         10.812688   0.000000
      8         11.227809   0.000000
      9         16.115335   0.000000
     10         16.457140   0.000000
     11         16.990660   0.000000
     12         17.370082   0.000000

 -0.4444444E+00  0.2222222E+00  0.1277775E-14  0.3292181E-01
      1         -3.377355   1.000000
      2         -1.076402   1.000000
      3          2.123892   1.000000
      4          3.697841   1.000000
      5          7.427175   0.000000
      6         10.581598   0.000000
      7         10.853311   0.000000
      8         11.742692   0.000000
      9         14.671742   0.000000
     10         14.880375   0.000000
     11         17.608881   0.000000
     12         18.680632   0.000000

 -0.3333333E+00  0.2222222E+00  0.1277266E-14  0.3292181E-01
      1         -3.778784   1.000000
      2         -0.513156   1.000000
      3          1.950031   1.000000
      4          4.070789   1.000000
      5          7.801371   0.000000
      6         10.514480   0.000000
      7         10.525937   0.000000
      8         12.731446   0.000000
      9         12.875531   0.000000
     10         14.018222   0.000000
     11         17.627906   0.000000
     12         19.762078   0.000000

 -0.2222222E+00  0.2222222E+00  0.1276756E-14  0.1646091E-01
      1         -4.583404   1.000000
      2          0.709016   1.000000
      3          2.333577   1.000000
      4          4.581915   1.000000
      5          8.310231   0.000000
      6          9.910052   0.000000
      7         10.230315   0.000000
      8         11.401514   0.000000
      9         11.848874   0.000000
     10         15.975715   0.000000
     11         17.203914   0.000000
     12         17.799310   0.000000

  0.3333333E+00  0.3333333E+00  0.1255191E-14  0.8230453E-02
      1         -4.328010   1.000000
      2          0.626898   1.000000
      3          3.249932   1.000000
      4          3.249932   1.000000
      5          6.375656   0.000000
      6          7.638902   0.000000
      7         12.790144   0.000000
      8         12.790144   0.000000
      9         15.230589   0.000000
     10         15.440953   0.000000
     11         18.541666   0.000000
     12         18.973689   0.000000

  0.4444444E+00  0.3333333E+00  0.1266254E-14  0.3292181E-01
      1         -3.603266   1.000000
      2         -0.406514   1.000000
      3          2.542809   1.000000
      4          3.095055   1.000000
      5          6.618175   0.000000
      6          7.678331   0.000000
      7         13.079971   0.000000
      8         13.144141   0.000000
      9         16.780914   0.000000
     10         16.942417   0.000000
     11         17.365380   0.000000
     12         17.447890   0.000000

 -0.4444444E+00  0.3333333E+00  0.1221754E-14  0.3292181E-01
      1         -2.827759   1.000000
      2         -1.286245   1.000000
      3          1.660794   1.000000
      4          3.199827   1.000000
      5          6.814671   0.000000
      6          9.252706   0.000000
      7         12.776876   0.000000
      8         12.871208   0.000000
      9         14.976528   0.000000
     10         15.051900   0.000000
     11         18.999992   0.000000
     12         19.358658   0.000000

 -0.3333333E+00  0.3333333E+00  0.1332268E-14  0.1646091E-01
      1         -3.001107   1.000000
      2         -1.096391   1.000000
      3          1.306427   1.000000
      4          3.548024   1.000000
      5          7.205109   0.000000
      6         11.394756   0.000000
      7         12.024795   0.000000
      8         12.588229   0.000000
      9         12.913300   0.000000
     10         13.269448   0.000000
     11         19.858704   0.000000
     12         20.432911   0.000000

  0.4444444E+00  0.4444444E+00  0.1252795E-14  0.8230453E-02
      1         -2.939614   1.000000
      2         -1.255693   1.000000
      3          2.870652   1.000000
      4          2.870652   1.000000
      5          6.240579   0.000000
      6          6.640844   0.000000
      7         14.834929   0.000000
      8         14.834929   0.000000
      9         17.074392   0.000000
     10         17.259089   0.000000
     11         17.259089   0.000000
     12         17.470116   0.000000

 -0.4444444E+00  0.4444444E+00  0.1221245E-14  0.1646091E-01
      1         -2.183785   1.000000
      2         -2.013968   1.000000
      3          2.273560   1.000000
      4          2.907361   1.000000
      5          6.466362   0.000000
      6          7.280746   0.000000
      7         14.710099   0.000000
      8         15.012862   0.000000
      9         15.418100   0.000000
     10         15.656739   0.000000
     11         18.904693   0.000000
     12         18.943702   0.000000

  0.3333333E+00  0.2222222E+00  0.1111111E+00  0.3292181E-01
      1         -5.159478   1.000000
      2          1.843785   1.000000
      3          3.301339   1.000000
      4          4.471709   1.000000
      5          7.993090   0.000000
      6          9.363675   0.000000
      7         10.019363   0.000000
      8         10.591567   0.000000
      9         13.016966   0.000000
     10         14.915355   0.000000
     11         16.333527   0.000000
     12         17.371602   0.000000

  0.4444444E+00  0.2222222E+00  0.1111111E+00  0.6584362E-01
      1         -4.438710   1.000000
      2          0.382260   1.000000
      3          2.698867   1.000000
      4          4.045426   1.000000
      5          8.371357   0.000000
      6          9.191488   0.000000
      7         10.376280   0.000000
      8         11.036456   0.000000
      9         13.887073   0.000000
     10         15.873429   0.000000
     11         17.099712   0.000000
     12         17.731683   0.000000

 -0.4444444E+00  0.2222222E+00  0.1111111E+00  0.6584362E-01
      1         -3.661640   1.000000
      2         -0.876493   1.000000
      3          2.503567   1.000000
      4          3.730762   1.000000
      5          8.454024   0.000000
      6          8.815216   0.000000
      7         10.975536   0.000000
      8         12.096981   0.000000
      9         14.175242   0.000000
     10         15.493399   0.000000
     11         16.931484   0.000000
     12         18.382975   0.000000

  0.4444444E+00  0.3333333E+00  0.1111111E+00  0.3292181E-01
      1         -4.157826   1.000000
      2          0.330525   1.000000
      3          2.603185   1.000000
      4          3.279408   1.000000
      5          7.450927   0.000000
      6          8.457750   0.000000
      7         11.001855   0.000000
      8         12.702957   0.000000
      9         14.964184   0.000000
     10         16.687278   0.000000
     11         17.156578   0.000000
     12         18.713874   0.000000

 -0.4444444E+00  0.3333333E+00  0.1111111E+00  0.6584362E-01
      1         -3.348822   1.000000
      2         -0.732783   1.000000
      3          1.951777   1.000000
      4          2.981562   1.000000
      5          7.853295   0.000000
      6          9.536468   0.000000
      7         10.567928   0.000000
      8         13.097662   0.000000
      9         14.434381   0.000000
     10         16.311127   0.000000
     11         17.739410   0.000000
     12         19.238221   0.000000

 -0.3333333E+00  0.3333333E+00  0.1111111E+00  0.6584362E-01
      1         -2.994217   1.000000
      2         -1.146669   1.000000
      3          1.573983   1.000000
      4          3.091004   1.000000
      5          8.139537   0.000000
      6         10.108008   0.000000
      7         11.633736   0.000000
      8         12.162622   0.000000
      9         13.020206   0.000000
     10         15.550976   0.000000
     11         18.468914   0.000000
     12         19.163632   0.000000

 -0.2222222E+00  0.3333333E+00  0.1111111E+00  0.3292181E-01
      1         -3.678434   1.000000
      2         -0.361941   1.000000
      3          1.720283   1.000000
      4          3.517534   1.000000
      5          8.638331   0.000000
      6          9.616217   0.000000
      7         10.463084   0.000000
      8         12.470034   0.000000
      9         14.019416   0.000000
     10         14.103951   0.000000
     11         18.906740   0.000000
     12         19.528839   0.000000

 -0.4444444E+00  0.4444444E+00  0.1111111E+00  0.3292181E-01
      1         -2.827190   1.000000
      2         -1.273427   1.000000
      3          2.322247   1.000000
      4          2.528949   1.000000
      5          7.283560   0.000000
      6          7.595961   0.000000
      7         12.757173   0.000000
      8         14.592333   0.000000
      9         15.126632   0.000000
     10         16.830849   0.000000
     11         17.625561   0.000000
     12         19.233189   0.000000

 -0.3333333E+00  0.4444444E+00  0.1111111E+00  0.3292181E-01
      1         -2.319260   1.000000
      2         -1.724618   1.000000
      3          1.619416   1.000000
      4          2.614755   1.000000
      5          7.650823   0.000000
      6          9.269806   0.000000
      7         12.217660   0.000000
      8         12.473692   0.000000
      9         14.975772   0.000000
     10         15.818186   0.000000
     11         18.543302   0.000000
     12         19.581600   0.000000

 -0.3333333E+00  0.4444444E+00  0.2222222E+00  0.3292181E-01
      1         -2.559784   1.000000
      2         -1.418270   1.000000
      3          1.656234   1.000000
      4          2.285485   1.000000
      5          9.454195   0.000000
      6          9.565544   0.000000
      7         10.189549   0.000000
      8         11.928463   0.000000
      9         14.936810   0.000000
     10         16.362067   0.000000
     11         18.146492   0.000000
     12         19.507888   0.000000
