       N       E                     dE             d eps       ncg     rms          rms(c)
DAV:   1     0.291390915776E+01    0.29139E+01   -0.37554E+03   840   0.587E+02
DAV:   2    -0.108818366153E+02   -0.13796E+02   -0.13360E+02  1188   0.559E+01
DAV:   3    -0.110219654816E+02   -0.14013E+00   -0.14013E+00  1008   0.687E+00
DAV:   4    -0.110224801479E+02   -0.51467E-03   -0.51467E-03  1464   0.469E-01
DAV:   5    -0.110224802489E+02   -0.10100E-06   -0.10100E-06  1032   0.561E-03    0.483E+00
DAV:   6    -0.109006843512E+02    0.12180E+00   -0.80535E-02  1080   0.991E-01    0.294E+00
DAV:   7    -0.108449411600E+02    0.55743E-01   -0.15103E-01  1092   0.145E+00    0.175E-01
DAV:   8    -0.108460084653E+02   -0.10673E-02   -0.32260E-03   984   0.293E-01    0.791E-02
DAV:   9    -0.108462113947E+02   -0.20293E-03   -0.22208E-04  1320   0.793E-02    0.593E-02
DAV:  10    -0.108462248560E+02   -0.13461E-04   -0.96960E-06  1128   0.177E-02    0.552E-03
DAV:  11    -0.108462262099E+02   -0.13539E-05   -0.24509E-06  1044   0.721E-03
   1 F= -.10846226E+02 E0= -.10846226E+02  d E =-.108462E+02
       N       E                     dE             d eps       ncg     rms          rms(c)
DAV:   1    -0.108503898984E+02   -0.41650E-02   -0.11415E-01  1032   0.128E+00    0.332E-01
DAV:   2    -0.108484368861E+02    0.19530E-02   -0.14776E-03   888   0.196E-01    0.193E-01
DAV:   3    -0.108474250246E+02    0.10119E-02   -0.20852E-03   984   0.157E-01    0.672E-02
DAV:   4    -0.108474249813E+02    0.43354E-07   -0.16211E-05  1092   0.255E-02
   2 F= -.10847425E+02 E0= -.10847425E+02  d E =-.119877E-02
       N       E                     dE             d eps       ncg     rms          rms(c)
DAV:   1    -0.108488550766E+02   -0.14301E-02   -0.18823E-02  1008   0.526E-01    0.131E-01
DAV:   2    -0.108485418562E+02    0.31322E-03   -0.24184E-04   912   0.801E-02    0.756E-02
DAV:   3    -0.108483859799E+02    0.15588E-03   -0.34134E-04   948   0.636E-02    0.273E-02
DAV:   4    -0.108483864496E+02   -0.46969E-06   -0.26943E-06   648   0.105E-02
   3 F= -.10848386E+02 E0= -.10848386E+02  d E =-.216024E-02
