<?xml version="1.0" encoding="ISO-8859-1"?>
<modeling>
 <generator>
  <i name="program" type="string">vasp </i>
  <i name="version" type="string">6.4.3  </i>
  <i name="subversion" type="string">19Mar24 (build Jul  4 2024 16:21:58) complex                          parallel </i>
  <i name="platform" type="string">LinuxGNU </i>
  <i name="date" type="string">2024 10 04 </i>
  <i name="time" type="string">20:07:41 </i>
 </generator>
 <incar>
  <i type="string" name="PREC">Accurate</i>
  <i type="int" name="IBRION">     2</i>
  <i name="EDIFF">      0.00001000</i>
  <i name="EDIFFG">     -0.01000000</i>
  <i type="int" name="NSW">   500</i>
  <i type="int" name="ISIF">     3</i>
  <i type="int" name="ISYM">     2</i>
  <i name="ENCUT">    600.00000000</i>
  <i type="logical" name="LREAL"> F  </i>
  <i type="int" name="ISMEAR">     0</i>
  <i name="SIGMA">      0.05000000</i>
  <i type="logical" name="LWAVE"> F  </i>
  <i type="logical" name="LCHARG"> F  </i>
  <i type="string" name="GGA">PE</i>
 </incar>
 <primitive_cell>
  <structure name="primitive_cell" >
   <crystal>
    <varray name="basis" >
     <v>       0.00000000       2.72185118       2.72185118 </v>
     <v>       2.72185118       0.00000000       2.72185118 </v>
     <v>       2.72185118       2.72185118       0.00000000 </v>
    </varray>
    <i name="volume">     40.32952678 </i>
    <varray name="rec_basis" >
     <v>      -0.18369851       0.18369851       0.18369851 </v>
     <v>       0.18369851      -0.18369851       0.18369851 </v>
     <v>       0.18369851       0.18369851      -0.18369851 </v>
    </varray>
   </crystal>
   <varray name="positions" >
    <v>       0.00000000       0.00000000       0.00000000 </v>
    <v>       0.25000000       0.25000000       0.25000000 </v>
   </varray>
  </structure>
  <varray name="primitive_index" >
   <v type="int" >        1 </v>
   <v type="int" >        2 </v>
  </varray>
 </primitive_cell>
 <kpoints>
  <generation param="Monkhorst-Pack">
   <v type="int" name="divisions">       9        9        9 </v>
   <v name="usershift">      0.00000000       0.00000000       0.00000000 </v>
   <v name="genvec1">      0.11111111       0.00000000      -0.00000000 </v>
   <v name="genvec2">      0.00000000       0.11111111       0.00000000 </v>
   <v name="genvec3">     -0.00000000      -0.00000000       0.11111111 </v>
   <v name="shift">      0.00000000       0.00000000       0.00000000 </v>
  </generation>
  <varray name="kpointlist" >
   <v>       0.00000000       0.00000000       0.00000000 </v>
   <v>       0.11111111       0.00000000       0.00000000 </v>
   <v>       0.22222222       0.00000000       0.00000000 </v>
   <v>       0.33333333       0.00000000       0.00000000 </v>
   <v>       0.44444444       0.00000000       0.00000000 </v>
   <v>       0.11111111       0.11111111       0.00000000 </v>
   <v>       0.22222222       0.11111111       0.00000000 </v>
   <v>       0.33333333       0.11111111       0.00000000 </v>
   <v>       0.44444444       0.11111111       0.00000000 </v>
   <v>      -0.44444444       0.11111111       0.00000000 </v>
   <v>      -0.33333333       0.11111111       0.00000000 </v>
   <v>      -0.22222222       0.11111111       0.00000000 </v>
   <v>      -0.11111111       0.11111111       0.00000000 </v>
   <v>       0.22222222       0.22222222       0.00000000 </v>
   <v>       0.33333333       0.22222222       0.00000000 </v>
   <v>       0.44444444       0.22222222       0.00000000 </v>
   <v>      -0.44444444       0.22222222       0.00000000 </v>
   <v>      -0.33333333       0.22222222       0.00000000 </v>
   <v>      -0.22222222       0.22222222       0.00000000 </v>
   <v>       0.33333333       0.33333333       0.00000000 </v>
   <v>       0.44444444       0.33333333       0.00000000 </v>
   <v>      -0.44444444       0.33333333       0.00000000 </v>
   <v>      -0.33333333       0.33333333       0.00000000 </v>
   <v>       0.44444444       0.44444444       0.00000000 </v>
   <v>      -0.44444444       0.44444444       0.00000000 </v>
   <v>       0.33333333       0.22222222       0.11111111 </v>
   <v>       0.44444444       0.22222222       0.11111111 </v>
   <v>      -0.44444444       0.22222222       0.11111111 </v>
   <v>       0.44444444       0.33333333       0.11111111 </v>
   <v>      -0.44444444       0.33333333       0.11111111 </v>
   <v>      -0.33333333       0.33333333       0.11111111 </v>
   <v>      -0.22222222       0.33333333       0.11111111 </v>
   <v>      -0.44444444       0.44444444       0.11111111 </v>
   <v>      -0.33333333       0.44444444       0.11111111 </v>
   <v>      -0.33333333       0.44444444       0.22222222 </v>
  </varray>
  <varray name="weights" >
   <v>       0.00137174 </v>
   <v>       0.01097394 </v>
   <v>       0.01097394 </v>
   <v>       0.01097394 </v>
   <v>       0.01097394 </v>
   <v>       0.00823045 </v>
   <v>       0.03292181 </v>
   <v>       0.03292181 </v>
   <v>       0.03292181 </v>
   <v>       0.03292181 </v>
   <v>       0.03292181 </v>
   <v>       0.03292181 </v>
   <v>       0.01646091 </v>
   <v>       0.00823045 </v>
   <v>       0.03292181 </v>
   <v>       0.03292181 </v>
   <v>       0.03292181 </v>
   <v>       0.03292181 </v>
   <v>       0.01646091 </v>
   <v>       0.00823045 </v>
   <v>       0.03292181 </v>
   <v>       0.03292181 </v>
   <v>       0.01646091 </v>
   <v>       0.00823045 </v>
   <v>       0.01646091 </v>
   <v>       0.03292181 </v>
   <v>       0.06584362 </v>
   <v>       0.06584362 </v>
   <v>       0.03292181 </v>
   <v>       0.06584362 </v>
   <v>       0.06584362 </v>
   <v>       0.03292181 </v>
   <v>       0.03292181 </v>
   <v>       0.03292181 </v>
   <v>       0.03292181 </v>
  </varray>
 </kpoints>
 <parameters>
  <separator name="general" >
   <i type="string" name="SYSTEM">unknown system</i>
   <i type="logical" name="LCOMPAT"> F  </i>
  </separator>
  <separator name="electronic" >
   <i type="string" name="PREC">accura</i>
   <i name="ENMAX">    600.00000000</i>
   <i name="ENAUG">    322.06900000</i>
   <i name="EDIFF">      0.00001000</i>
   <i type="int" name="IALGO">    38</i>
   <i type="int" name="IWAVPR">    11</i>
   <i type="int" name="NBANDS">    12</i>
   <i type="int" name="NBANDSLOW">    -1</i>
   <i type="int" name="NBANDSHIGH">    -1</i>
   <i name="NELECT">      8.00000000</i>
   <i type="int" name="TURBO">     0</i>
   <i type="int" name="IRESTART">     0</i>
   <i type="int" name="NREBOOT">     0</i>
   <i type="int" name="NMIN">     0</i>
   <i name="EREF">      0.00000000</i>
   <separator name="electronic smearing" >
    <i type="int" name="ISMEAR">     0</i>
    <i name="SIGMA">      0.05000000</i>
    <i name="KSPACING">      0.50000000</i>
    <i type="logical" name="KGAMMA"> T  </i>
    <i type="logical" name="KBLOWUP"> T  </i>
   </separator>
   <separator name="electronic projectors" >
    <i type="logical" name="LREAL"> F  </i>
    <v name="ROPT">      0.00000000</v>
    <i type="int" name="LMAXPAW">  -100</i>
    <i type="int" name="LMAXMIX">     2</i>
    <i type="logical" name="NLSPLINE"> F  </i>
   </separator>
   <separator name="electronic startup" >
    <i type="int" name="ISTART">     0</i>
    <i type="int" name="ICHARG">     2</i>
    <i type="int" name="INIWAV">     1</i>
   </separator>
   <separator name="electronic spin" >
    <i type="int" name="ISPIN">     1</i>
    <i type="logical" name="LNONCOLLINEAR"> F  </i>
    <v name="MAGMOM">      1.00000000      1.00000000</v>
    <i name="NUPDOWN">     -1.00000000</i>
    <i type="logical" name="LSORBIT"> F  </i>
    <v name="SAXIS">      0.00000000      0.00000000      1.00000000</v>
    <i type="logical" name="LSPIRAL"> F  </i>
    <v name="QSPIRAL">      0.00000000      0.00000000      0.00000000</v>
    <i type="logical" name="LZEROZ"> F  </i>
   </separator>
   <separator name="electronic exchange-correlation" >
    <i type="logical" name="LASPH"> F  </i>
   </separator>
   <separator name="electronic convergence" >
    <i type="int" name="NELM">    60</i>
    <i type="int" name="NELMDL">    -5</i>
    <i type="int" name="NELMIN">     2</i>
    <i name="ENINI">    600.00000000</i>
    <separator name="electronic convergence detail" >
     <i type="logical" name="LDIAG"> T  </i>
     <i type="logical" name="LSUBROT"> F  </i>
     <i name="WEIMIN">      0.00100000</i>
     <i name="EBREAK">      0.00000021</i>
     <i name="DEPER">      0.30000000</i>
     <i type="int" name="NRMM">     4</i>
     <i name="TIME">      0.40000000</i>
    </separator>
   </separator>
   <separator name="electronic mixer" >
    <i name="AMIX">      0.40000000</i>
    <i name="BMIX">      1.00000000</i>
    <i name="AMIN">      0.10000000</i>
    <i name="AMIX_MAG">      1.60000000</i>
    <i name="BMIX_MAG">      1.00000000</i>
    <separator name="electronic mixer details" >
     <i type="int" name="IMIX">     4</i>
     <i type="logical" name="MIXFIRST"> F  </i>
     <i type="int" name="MAXMIX">   -45</i>
     <i name="WC">    100.00000000</i>
     <i type="int" name="INIMIX">     1</i>
     <i type="int" name="MIXPRE">     1</i>
     <i type="int" name="MREMOVE">     5</i>
    </separator>
   </separator>
   <separator name="electronic dipolcorrection" >
    <i type="logical" name="LDIPOL"> F  </i>
    <i type="logical" name="LMONO"> F  </i>
    <i type="int" name="IDIPOL">     0</i>
    <i name="EPSILON">      1.00000000</i>
    <v name="DIPOL">   -100.00000000   -100.00000000   -100.00000000</v>
    <i name="EFIELD">      0.00000000</i>
    <i type="logical" name="LVACPOTAV"> F  </i>
   </separator>
  </separator>
  <separator name="grids" >
   <i type="int" name="NGX">    32</i>
   <i type="int" name="NGY">    32</i>
   <i type="int" name="NGZ">    32</i>
   <i type="int" name="NGXF">    64</i>
   <i type="int" name="NGYF">    64</i>
   <i type="int" name="NGZF">    64</i>
   <i type="logical" name="ADDGRID"> F  </i>
  </separator>
  <separator name="ionic" >
   <i type="int" name="NSW">   500</i>
   <i type="int" name="IBRION">     2</i>
   <i type="int" name="MDALGO">     0</i>
   <i type="int" name="ISIF">     3</i>
   <i name="PSTRESS">      0.00000000</i>
   <i name="EDIFFG">     -0.01000000</i>
   <i type="int" name="NFREE">     1</i>
   <i name="POTIM">      0.50000000</i>
   <i name="SMASS">     -3.00000000</i>
   <i name="SCALEE">      1.00000000</i>
  </separator>
  <separator name="ionic md" >
   <i name="TEBEG">      0.00010000</i>
   <i name="TEEND">      0.00010000</i>
   <i type="int" name="NBLOCK">     1</i>
   <i type="int" name="KBLOCK">   500</i>
   <i type="int" name="NPACO">   256</i>
   <i name="APACO">     10.00000000</i>
  </separator>
  <separator name="symmetry" >
   <i type="int" name="ISYM">     2</i>
   <i name="SYMPREC">      0.00001000</i>
  </separator>
  <separator name="dos" >
   <i type="int" name="LORBIT">     0</i>
   <v name="RWIGS">     -1.00000000</v>
   <i type="int" name="NEDOS">   301</i>
   <i name="EMIN">     10.00000000</i>
   <i name="EMAX">    -10.00000000</i>
   <i name="EFERMI">      0.00000000</i>
  </separator>
  <separator name="writing" >
   <i type="int" name="NWRITE">     2</i>
   <i type="logical" name="LWAVE"> F  </i>
   <i type="logical" name="LDOWNSAMPLE"> F  </i>
   <i type="logical" name="LCHARG"> F  </i>
   <i type="logical" name="LPARD"> F  </i>
   <i type="logical" name="LVTOT"> F  </i>
   <i type="logical" name="LVHAR"> F  </i>
   <i type="logical" name="LELF"> F  </i>
   <i type="logical" name="LOPTICS"> F  </i>
   <v name="STM">      0.00000000      0.00000000      0.00000000      0.00000000      0.00000000      0.00000000      0.00000000</v>
  </separator>
  <separator name="performance" >
   <i type="int" name="NPAR">     6</i>
   <i type="int" name="NSIM">     4</i>
   <i type="int" name="NBLK">    -1</i>
   <i type="logical" name="LPLANE"> T  </i>
   <i type="logical" name="LSCALAPACK"> T  </i>
   <i type="logical" name="LSCAAWARE"> F  </i>
   <i type="logical" name="LSCALU"> F  </i>
   <i type="logical" name="LASYNC"> F  </i>
   <i type="logical" name="LORBITALREAL"> F  </i>
  </separator>
  <separator name="miscellaneous" >
   <i type="int" name="IDIOT">     3</i>
   <i type="int" name="PHON_NSTRUCT">    -1</i>
   <i type="logical" name="LMUSIC"> F  </i>
   <v name="POMASS">     28.08500000</v>
   <v name="DARWINR">      0.00000000</v>
   <v name="DARWINV">      1.00000000</v>
   <i type="logical" name="LCORR"> T  </i>
  </separator>
  <i type="logical" name="GGA_COMPAT"> T  </i>
  <i type="logical" name="LBERRY"> F  </i>
  <i type="int" name="ICORELEVEL">     0</i>
  <i type="logical" name="LDAU"> F  </i>
  <i type="int" name="I_CONSTRAINED_M">     0</i>
  <separator name="electronic exchange-correlation" >
   <i type="string" name="GGA    ">PE</i>
   <i type="string" name="XC_C">1</i>
   <i type="int" name="VOSKOWN">     0</i>
   <i type="logical" name="LHFCALC"> F  </i>
   <i type="string" name="PRECFOCK"></i>
   <i type="logical" name="LSYMGRAD"> F  </i>
   <i type="logical" name="LHFONE"> F  </i>
   <i type="logical" name="LRHFCALC"> F  </i>
   <i type="logical" name="LTHOMAS"> F  </i>
   <i type="logical" name="LMODELHF"> F  </i>
   <i type="logical" name="LFOCKACE"> F  </i>
   <i name="ENCUT4O">     -1.00000000</i>
   <i type="int" name="EXXOEP">     0</i>
   <i type="int" name="FOURORBIT">     0</i>
   <i name="AEXX">      0.00000000</i>
   <i name="HFALPHA">      0.00000000</i>
   <i name="MCALPHA">      0.00000000</i>
   <i name="ALDAX">      1.00000000</i>
   <i name="AGGAX">      1.00000000</i>
   <i name="AMGGAX">      1.00000000</i>
   <i name="ALDAC">      1.00000000</i>
   <i name="AGGAC">      1.00000000</i>
   <i name="AMGGAC">      1.00000000</i>
   <i type="int" name="NKREDX">     1</i>
   <i type="int" name="NKREDY">     1</i>
   <i type="int" name="NKREDZ">     1</i>
   <i type="logical" name="SHIFTRED"> F  </i>
   <i type="logical" name="ODDONLY"> F  </i>
   <i type="logical" name="EVENONLY"> F  </i>
   <i type="int" name="LMAXFOCK">     0</i>
   <i type="int" name="NMAXFOCKAE">     0</i>
   <i type="logical" name="LFOCKAEDFT"> F  </i>
   <i name="HFSCREEN">      0.00000000</i>
   <i name="HFSCREENC">      0.00000000</i>
   <i type="int" name="NBANDSGWLOW">     0</i>
  </separator>
  <separator name="vdW DFT" >
   <i type="logical" name="LUSE_VDW"> F  </i>
   <i type="int" name="IVDW_NL">    -1</i>
   <i type="logical" name="LSPIN_VDW"> F  </i>
   <i name="ZAB_VDW">     -0.84910000</i>
   <i name="GAMMA_VDW">      1.39626340</i>
   <i name="ALPHA_VDW">      0.00000000</i>
   <i name="PARAM1">      0.12340000</i>
   <i name="PARAM2">      1.00000000</i>
   <i name="BPARAM">      6.30000000</i>
   <i name="CPARAM">      0.00930000</i>
  </separator>
  <separator name="model GW" >
   <i type="int" name="MODEL_GW">     0</i>
   <i name="MODEL_EPS0">     12.09885803</i>
   <i name="MODEL_ALPHA">      1.00000000</i>
  </separator>
  <separator name="linear response parameters" >
   <i type="logical" name="LEPSILON"> F  </i>
   <i type="logical" name="LRPA"> F  </i>
   <i type="logical" name="LNABLA"> F  </i>
   <i type="logical" name="LVEL"> F  </i>
   <i name="CSHIFT">      0.10000000</i>
   <i name="OMEGAMAX">     -1.00000000</i>
   <i name="DEG_THRESHOLD">      0.00200000</i>
   <i name="RTIME">     -0.10000000</i>
   <i name="WPLASMAI">      0.00000000</i>
   <v name="DFIELD">      0.00000000      0.00000000      0.00000000</v>
   <v name="WPLASMA">      0.00000000      0.00000000      0.00000000      0.00000000      0.00000000      0.00000000      0.00000000      0.00000000      0.00000000</v>
  </separator>
  <separator name="orbital magnetization" >
   <i type="logical" name="NUCIND"> F  </i>
   <v name="MAGPOS">      0.00000000      0.00000000      0.00000000</v>
   <i type="logical" name="LNICSALL"> T  </i>
   <i type="logical" name="ORBITALMAG"> F  </i>
   <i type="logical" name="LMAGBLOCH"> F  </i>
   <i type="logical" name="LCHIMAG"> F  </i>
   <i type="logical" name="LGAUGE"> T  </i>
   <i type="int" name="MAGATOM">     0</i>
   <v name="MAGDIPOL">      0.00000000      0.00000000      0.00000000</v>
   <v name="AVECCONST">      0.00000000      0.00000000      0.00000000</v>
  </separator>
  <separator name="response functions" >
   <i type="logical" name="LALL_IN_ONE"> F  </i>
   <i type="int" name="IALL_IN_ONE">    -1</i>
   <i type="int" name="NBANDS_WAVE">    -1</i>
   <i type="logical" name="LFINITE_TEMPERATURE"> F  </i>
   <i type="logical" name="LADDER"> F  </i>
   <i type="logical" name="LRPAFORCE"> F  </i>
   <i type="logical" name="LFXC"> F  </i>
   <i type="logical" name="LHARTREE"> T  </i>
   <i type="int" name="IBSE">     0</i>
   <v type="int" name="KPOINT">    -1     0     0     0</v>
   <i type="logical" name="LTCTC"> F  </i>
   <i type="logical" name="LTCTE"> F  </i>
   <i type="logical" name="LTETE"> F  </i>
   <i type="logical" name="LTRIPLET"> F  </i>
   <i type="logical" name="LFXCEPS"> F  </i>
   <i type="logical" name="LFXHEG"> F  </i>
   <i type="int" name="NATURALO">     2</i>
   <i type="logical" name="LHOLEGF"> F  </i>
   <i type="logical" name="L2ORDER"> F  </i>
   <i type="logical" name="LDMP1"> F  </i>
   <i type="logical" name="LMP2LT"> F  </i>
   <i type="logical" name="LSMP2LT"> F  </i>
   <i type="logical" name="LGWLF"> F  </i>
   <i name="ENCUTGW">     -1.60000002</i>
   <i name="ENCUTGWSOFT">     -1.60000002</i>
   <i name="ENCUTLF">     -1.00000000</i>
   <i type="logical" name="ESF_SPLINES"> F  </i>
   <i name="ESF_CONV">      0.01000000</i>
   <i type="int" name="ESF_NINTER">    15</i>
   <i type="int" name="LMAXMP2">    -1</i>
   <i name="SCISSOR">      0.00000000</i>
   <i type="int" name="NOMEGA">     0</i>
   <i type="int" name="NOMEGAR">     0</i>
   <i type="int" name="NBANDSGW">    -1</i>
   <i type="int" name="NBANDSO">    -1</i>
   <i type="int" name="NBANDSV">    -1</i>
   <i type="int" name="NELMGW">     1</i>
   <i type="int" name="NELMHF">     1</i>
   <i type="int" name="DIM">     3</i>
   <i type="int" name="IESPILON">     4</i>
   <i type="int" name="ANTIRES">     0</i>
   <i name="OMEGAMAX">    -30.00000000</i>
   <i name="OMEGAMIN">    -30.00000000</i>
   <i name="OMEGATL">   -200.00000000</i>
   <i type="int" name="OMEGAGRID">     0</i>
   <i name="CSHIFT">     -0.10000000</i>
   <i type="logical" name="LSELFENERGY"> F  </i>
   <i type="logical" name="LSPECTRAL"> F  </i>
   <i type="logical" name="LSPECTRALGW"> F  </i>
   <i type="logical" name="LSINGLES"> F  </i>
   <i type="logical" name="LFERMIGW"> F  </i>
   <i type="logical" name="ODDONLYGW"> F  </i>
   <i type="logical" name="EVENONLYGW"> F  </i>
   <i type="int" name="NKREDLFX">     1</i>
   <i type="int" name="NKREDLFY">     1</i>
   <i type="int" name="NKREDLFZ">     1</i>
   <i type="int" name="MAXMEM">  2800</i>
   <i type="int" name="TELESCOPE">     0</i>
   <i type="int" name="NTAUPAR">    -1</i>
   <i type="int" name="NOMEGAPAR">    -1</i>
   <i name="DAMP_NEWTON">      0.80000001</i>
   <i name="LAMBDA">      1.00000000</i>
  </separator>
  <separator name="External order field" >
   <i name="OFIELD_KAPPA">      0.00000000</i>
   <v name="OFIELD_K">      0.00000000      0.00000000      0.00000000</v>
   <i name="OFIELD_Q6_NEAR">      0.00000000</i>
   <i name="OFIELD_Q6_FAR">      0.00000000</i>
   <i name="OFIELD_A">      0.00000000</i>
  </separator>
  <separator name="optional k-points parameters" >
   <i type="int" name="KPOINTS_OPT_MODE">     1</i>
   <i type="logical" name="LKPOINTS_OPT"> F  </i>
  </separator>
 </parameters>
 <atominfo>
  <atoms>       2 </atoms>
  <types>       1 </types>
  <array name="atoms" >
   <dimension dim="1">ion</dimension>
   <field type="string">element</field>
   <field type="int">atomtype</field>
   <set>
    <rc><c>Si</c><c>   1</c></rc>
    <rc><c>Si</c><c>   1</c></rc>
   </set>
  </array>
  <array name="atomtypes" >
   <dimension dim="1">type</dimension>
   <field type="int">atomspertype</field>
   <field type="string">element</field>
   <field>mass</field>
   <field>valence</field>
   <field type="string">pseudopotential</field>
   <set>
    <rc><c>   2</c><c>Si</c><c>     28.08500000</c><c>      4.00000000</c><c>  PAW_PBE Si 05Jan2001                  </c></rc>
   </set>
  </array>
 </atominfo>
 <structure name="initialpos" >
  <crystal>
   <varray name="basis" >
    <v>       0.00000000       2.72185118       2.72185118 </v>
    <v>       2.72185118       0.00000000       2.72185118 </v>
    <v>       2.72185118       2.72185118       0.00000000 </v>
   </varray>
   <i name="volume">     40.32952678 </i>
   <varray name="rec_basis" >
    <v>      -0.18369851       0.18369851       0.18369851 </v>
    <v>       0.18369851      -0.18369851       0.18369851 </v>
    <v>       0.18369851       0.18369851      -0.18369851 </v>
   </varray>
  </crystal>
  <varray name="positions" >
   <v>       0.00000000       0.00000000       0.00000000 </v>
   <v>       0.25000000       0.25000000       0.25000000 </v>
  </varray>
 </structure>
 <calculation>
  <scstep>
   <time name="dav">    0.11    0.11</time>
   <time name="total">    0.12    0.12</time>
   <energy>
    <i name="alphaZ">      3.33880742 </i>
    <i name="ewald">   -227.98820656 </i>
    <i name="hartreedc">    -11.11484529 </i>
    <i name="XCdc">    -18.63153720 </i>
    <i name="pawpsdc">    176.24759923 </i>
    <i name="pawaedc">   -141.06103558 </i>
    <i name="eentropy">     -0.00120085 </i>
    <i name="bandstr">     15.99120888 </i>
    <i name="atom">    206.13311910 </i>
    <i name="e_fr_energy">      2.91390916 </i>
    <i name="e_wo_entrp">      2.91511000 </i>
    <i name="e_0_energy">      2.91450958 </i>
   </energy>
  </scstep>
  <scstep>
   <time name="dav">    0.16    0.16</time>
   <time name="total">    0.16    0.16</time>
   <energy>
    <i name="e_fr_energy">    -10.88183662 </i>
    <i name="e_wo_entrp">    -10.88183662 </i>
    <i name="e_0_energy">    -10.88183662 </i>
   </energy>
  </scstep>
  <scstep>
   <time name="dav">    0.14    0.14</time>
   <time name="total">    0.14    0.14</time>
   <energy>
    <i name="e_fr_energy">    -11.02196548 </i>
    <i name="e_wo_entrp">    -11.02196548 </i>
    <i name="e_0_energy">    -11.02196548 </i>
   </energy>
  </scstep>
  <scstep>
   <time name="dav">    0.22    0.22</time>
   <time name="total">    0.22    0.22</time>
   <energy>
    <i name="e_fr_energy">    -11.02248015 </i>
    <i name="e_wo_entrp">    -11.02248015 </i>
    <i name="e_0_energy">    -11.02248015 </i>
   </energy>
  </scstep>
  <scstep>
   <time name="dav">    0.14    0.14</time>
   <time name="total">    0.16    0.16</time>
   <energy>
    <i name="e_fr_energy">    -11.02248025 </i>
    <i name="e_wo_entrp">    -11.02248025 </i>
    <i name="e_0_energy">    -11.02248025 </i>
   </energy>
  </scstep>
  <scstep>
   <time name="dav">    0.15    0.15</time>
   <time name="total">    0.17    0.17</time>
   <energy>
    <i name="e_fr_energy">    -10.90068435 </i>
    <i name="e_wo_entrp">    -10.90068435 </i>
    <i name="e_0_energy">    -10.90068435 </i>
   </energy>
  </scstep>
  <scstep>
   <time name="dav">    0.15    0.15</time>
   <time name="total">    0.17    0.17</time>
   <energy>
    <i name="e_fr_energy">    -10.84494116 </i>
    <i name="e_wo_entrp">    -10.84494116 </i>
    <i name="e_0_energy">    -10.84494116 </i>
   </energy>
  </scstep>
  <scstep>
   <time name="dav">    0.13    0.13</time>
   <time name="total">    0.15    0.15</time>
   <energy>
    <i name="e_fr_energy">    -10.84600847 </i>
    <i name="e_wo_entrp">    -10.84600847 </i>
    <i name="e_0_energy">    -10.84600847 </i>
   </energy>
  </scstep>
  <scstep>
   <time name="dav">    0.20    0.20</time>
   <time name="total">    0.22    0.22</time>
   <energy>
    <i name="e_fr_energy">    -10.84621139 </i>
    <i name="e_wo_entrp">    -10.84621139 </i>
    <i name="e_0_energy">    -10.84621139 </i>
   </energy>
  </scstep>
  <scstep>
   <time name="dav">    0.16    0.16</time>
   <time name="total">    0.17    0.17</time>
   <energy>
    <i name="e_fr_energy">    -10.84622486 </i>
    <i name="e_wo_entrp">    -10.84622486 </i>
    <i name="e_0_energy">    -10.84622486 </i>
   </energy>
  </scstep>
  <scstep>
   <time name="dav">    0.15    0.15</time>
   <time name="total">    0.16    0.16</time>
   <energy>
    <i name="alphaZ">      3.33880742 </i>
    <i name="ewald">   -227.98820656 </i>
    <i name="hartreedc">    -15.01139133 </i>
    <i name="XCdc">    -17.99774565 </i>
    <i name="pawpsdc">    855.18379438 </i>
    <i name="pawaedc">   -820.21451400 </i>
    <i name="eentropy">     -0.00000000 </i>
    <i name="bandstr">      5.70991042 </i>
    <i name="atom">    206.13311910 </i>
    <i name="e_fr_energy">    -10.84622621 </i>
    <i name="e_wo_entrp">    -10.84622621 </i>
    <i name="e_0_energy">    -10.84622621 </i>
   </energy>
  </scstep>
  <structure>
   <crystal>
    <varray name="basis" >
     <v>       0.00000000       2.72185118       2.72185118 </v>
     <v>       2.72185118       0.00000000       2.72185118 </v>
     <v>       2.72185118       2.72185118       0.00000000 </v>
    </varray>
    <i name="volume">     40.32952678 </i>
    <varray name="rec_basis" >
     <v>      -0.18369851       0.18369851       0.18369851 </v>
     <v>       0.18369851      -0.18369851       0.18369851 </v>
     <v>       0.18369851       0.18369851      -0.18369851 </v>
    </varray>
   </crystal>
   <varray name="positions" >
    <v>       0.00000000       0.00000000       0.00000000 </v>
    <v>       0.25000000       0.25000000       0.25000000 </v>
   </varray>
  </structure>
  <varray name="forces" >
   <v>       0.00000000       0.00000000       0.00000000 </v>
   <v>      -0.00000000      -0.00000000      -0.00000000 </v>
  </varray>
  <varray name="stress" >
   <v>      12.67664205       0.00000000      -0.00000000 </v>
   <v>       0.00000000      12.67664205       0.00000000 </v>
   <v>      -0.00000000       0.00000000      12.67664205 </v>
  </varray>
  <energy>
   <i name="e_fr_energy">    -10.84622621 </i>
   <i name="e_wo_entrp">    -10.84622621 </i>
   <i name="e_0_energy">    -10.84622621 </i>
  </energy>
  <time name="totalsc">    1.90    1.91</time>
 </calculation>
 <calculation>
  <scstep>
   <time name="dav">    0.14    0.14</time>
   <time name="total">    0.16    0.16</time>
   <energy>
    <i name="alphaZ">      3.26288339 </i>
    <i name="ewald">   -226.24679905 </i>
    <i name="hartreedc">    -14.89805234 </i>
    <i name="XCdc">    -18.11028760 </i>
    <i name="pawpsdc">    854.89804285 </i>
    <i name="pawaedc">   -819.92881916 </i>
    <i name="eentropy">     -0.00000000 </i>
    <i name="bandstr">      4.03952291 </i>
    <i name="atom">    206.13311910 </i>
    <i name="e_fr_energy">    -10.85038990 </i>
    <i name="e_wo_entrp">    -10.85038990 </i>
    <i name="e_0_energy">    -10.85038990 </i>
   </energy>
  </scstep>
  <scstep>
   <time name="dav">    0.12    0.12</time>
   <time name="total">    0.13    0.13</time>
   <energy>
    <i name="e_fr_energy">    -10.84843689 </i>
    <i name="e_wo_entrp">    -10.84843689 </i>
    <i name="e_0_energy">    -10.84843689 </i>
   </energy>
  </scstep>
  <scstep>
   <time name="dav">    0.14    0.14</time>
   <time name="total">    0.15    0.16</time>
   <energy>
    <i name="e_fr_energy">    -10.84742502 </i>
    <i name="e_wo_entrp">    -10.84742502 </i>
    <i name="e_0_energy">    -10.84742502 </i>
   </energy>
  </scstep>
  <scstep>
   <time name="dav">    0.16    0.16</time>
   <time name="total">    0.16    0.16</time>
   <energy>
    <i name="alphaZ">      3.26288339 </i>
    <i name="ewald">   -226.24679905 </i>
    <i name="hartreedc">    -15.28637411 </i>
    <i name="XCdc">    -18.10072790 </i>
    <i name="pawpsdc">    801.55169364 </i>
    <i name="pawaedc">   -766.56692463 </i>
    <i name="eentropy">     -0.00000000 </i>
    <i name="bandstr">      4.40570457 </i>
    <i name="atom">    206.13311910 </i>
    <i name="e_fr_energy">    -10.84742498 </i>
    <i name="e_wo_entrp">    -10.84742498 </i>
    <i name="e_0_energy">    -10.84742498 </i>
   </energy>
  </scstep>
  <structure>
   <crystal>
    <varray name="basis" >
     <v>       0.00000000       2.74280110       2.74280110 </v>
     <v>       2.74280110       0.00000000       2.74280110 </v>
     <v>       2.74280110       2.74280110      -0.00000000 </v>
    </varray>
    <i name="volume">     41.26795444 </i>
    <varray name="rec_basis" >
     <v>      -0.18229539       0.18229539       0.18229539 </v>
     <v>       0.18229539      -0.18229539       0.18229539 </v>
     <v>       0.18229539       0.18229539      -0.18229539 </v>
    </varray>
   </crystal>
   <varray name="positions" >
    <v>       0.00000000       0.00000000       0.00000000 </v>
    <v>       0.25000000       0.25000000       0.25000000 </v>
   </varray>
  </structure>
  <varray name="forces" >
   <v>       0.00000000       0.00000000       0.00000000 </v>
   <v>      -0.00000000      -0.00000000      -0.00000000 </v>
  </varray>
  <varray name="stress" >
   <v>      -7.98456358      -0.00000000       0.00000000 </v>
   <v>       0.00000000      -7.98456358       0.00000000 </v>
   <v>       0.00000000       0.00000000      -7.98456358 </v>
  </varray>
  <energy>
   <i name="e_fr_energy">    -10.84742498 </i>
   <i name="e_wo_entrp">    -10.84742498 </i>
   <i name="e_0_energy">    -10.84742498 </i>
  </energy>
  <time name="totalsc">    0.67    0.67</time>
 </calculation>
 <calculation>
  <scstep>
   <time name="dav">    0.14    0.14</time>
   <time name="total">    0.16    0.16</time>
   <energy>
    <i name="alphaZ">      3.29336351 </i>
    <i name="ewald">   -226.94910907 </i>
    <i name="hartreedc">    -15.33463864 </i>
    <i name="XCdc">    -18.05715617 </i>
    <i name="pawpsdc">    813.57322056 </i>
    <i name="pawaedc">   -778.58447346 </i>
    <i name="eentropy">     -0.00000000 </i>
    <i name="bandstr">      5.07681908 </i>
    <i name="atom">    206.13311910 </i>
    <i name="e_fr_energy">    -10.84885508 </i>
    <i name="e_wo_entrp">    -10.84885508 </i>
    <i name="e_0_energy">    -10.84885508 </i>
   </energy>
  </scstep>
  <scstep>
   <time name="dav">    0.12    0.12</time>
   <time name="total">    0.14    0.14</time>
   <energy>
    <i name="e_fr_energy">    -10.84854186 </i>
    <i name="e_wo_entrp">    -10.84854186 </i>
    <i name="e_0_energy">    -10.84854186 </i>
   </energy>
  </scstep>
  <scstep>
   <time name="dav">    0.13    0.13</time>
   <time name="total">    0.14    0.14</time>
   <energy>
    <i name="e_fr_energy">    -10.84838598 </i>
    <i name="e_wo_entrp">    -10.84838598 </i>
    <i name="e_0_energy">    -10.84838598 </i>
   </energy>
  </scstep>
  <scstep>
   <time name="dav">    0.09    0.09</time>
   <time name="total">    0.10    0.10</time>
   <energy>
    <i name="alphaZ">      3.29336351 </i>
    <i name="ewald">   -226.94910907 </i>
    <i name="hartreedc">    -15.17665623 </i>
    <i name="XCdc">    -18.06117637 </i>
    <i name="pawpsdc">    833.73673394 </i>
    <i name="pawaedc">   -798.75388069 </i>
    <i name="eentropy">     -0.00000000 </i>
    <i name="bandstr">      4.92921935 </i>
    <i name="atom">    206.13311910 </i>
    <i name="e_fr_energy">    -10.84838645 </i>
    <i name="e_wo_entrp">    -10.84838645 </i>
    <i name="e_0_energy">    -10.84838645 </i>
   </energy>
  </scstep>
  <structure>
   <crystal>
    <varray name="basis" >
     <v>       0.00000000       2.73431331       2.73431331 </v>
     <v>       2.73431331       0.00000000       2.73431331 </v>
     <v>       2.73431331       2.73431331      -0.00000000 </v>
    </varray>
    <i name="volume">     40.88601902 </i>
    <varray name="rec_basis" >
     <v>      -0.18286127       0.18286127       0.18286127 </v>
     <v>       0.18286127      -0.18286127       0.18286127 </v>
     <v>       0.18286127       0.18286127      -0.18286127 </v>
    </varray>
   </crystal>
   <varray name="positions" >
    <v>       0.00000000       0.00000000       0.00000000 </v>
    <v>       0.25000000       0.25000000       0.25000000 </v>
   </varray>
  </structure>
  <varray name="forces" >
   <v>       0.00000000       0.00000000       0.00000000 </v>
   <v>      -0.00000000      -0.00000000      -0.00000000 </v>
  </varray>
  <varray name="stress" >
   <v>       0.03846509       0.00000000       0.00000000 </v>
   <v>       0.00000000       0.03846509       0.00000000 </v>
   <v>       0.00000000       0.00000000       0.03846509 </v>
  </varray>
  <energy>
   <i name="e_fr_energy">    -10.84838645 </i>
   <i name="e_wo_entrp">    -10.84838645 </i>
   <i name="e_0_energy">    -10.84838645 </i>
  </energy>
  <time name="totalsc">    0.58    0.59</time>
  <eigenvalues>
   <array>
    <dimension dim="1">band</dimension>
    <dimension dim="2">kpoint</dimension>
    <dimension dim="3">spin</dimension>
    <field>eigene</field>
    <field>occ</field>
    <set>
     <set comment="spin 1">
      <set comment="kpoint 1">
       <r>   -6.1979    1.0000 </r>
       <r>    5.6170    1.0000 </r>
       <r>    5.6170    1.0000 </r>
       <r>    5.6170    1.0000 </r>
       <r>    8.1737    0.0000 </r>
       <r>    8.1737    0.0000 </r>
       <r>    8.1737    0.0000 </r>
       <r>    8.7518    0.0000 </r>
       <r>   13.3261    0.0000 </r>
       <r>   13.3261    0.0000 </r>
       <r>   13.4965    0.0000 </r>
       <r>   16.7997    0.0000 </r>
      </set>
      <set comment="kpoint 2">
       <r>   -6.0393    1.0000 </r>
       <r>    4.2780    1.0000 </r>
       <r>    5.3848    1.0000 </r>
       <r>    5.3848    1.0000 </r>
       <r>    8.1067    0.0000 </r>
       <r>    8.5160    0.0000 </r>
       <r>    8.5160    0.0000 </r>
       <r>    9.9093    0.0000 </r>
       <r>   12.9201    0.0000 </r>
       <r>   12.9201    0.0000 </r>
       <r>   14.1339    0.0000 </r>
       <r>   16.3166    0.0000 </r>
      </set>
      <set comment="kpoint 3">
       <r>   -5.5735    1.0000 </r>
       <r>    2.2284    1.0000 </r>
       <r>    4.9680    1.0000 </r>
       <r>    4.9680    1.0000 </r>
       <r>    7.6822    0.0000 </r>
       <r>    9.0402    0.0000 </r>
       <r>    9.0402    0.0000 </r>
       <r>   11.8907    0.0000 </r>
       <r>   12.6966    0.0000 </r>
       <r>   12.6966    0.0000 </r>
       <r>   14.6481    0.0000 </r>
       <r>   16.8099    0.0000 </r>
      </set>
      <set comment="kpoint 4">
       <r>   -4.8478    1.0000 </r>
       <r>    0.3475    1.0000 </r>
       <r>    4.6345    1.0000 </r>
       <r>    4.6345    1.0000 </r>
       <r>    7.3101    0.0000 </r>
       <r>    9.1203    0.0000 </r>
       <r>    9.1203    0.0000 </r>
       <r>   13.4016    0.0000 </r>
       <r>   13.5718    0.0000 </r>
       <r>   13.5718    0.0000 </r>
       <r>   14.5995    0.0000 </r>
       <r>   19.0469    0.0000 </r>
      </set>
      <set comment="kpoint 5">
       <r>   -4.0767    1.0000 </r>
       <r>   -1.0191    1.0000 </r>
       <r>    4.4604    1.0000 </r>
       <r>    4.4604    1.0000 </r>
       <r>    7.1097    0.0000 </r>
       <r>    8.9901    0.0000 </r>
       <r>    8.9901    0.0000 </r>
       <r>   13.3565    0.0000 </r>
       <r>   15.3210    0.0000 </r>
       <r>   15.3210    0.0000 </r>
       <r>   16.2552    0.0000 </r>
       <r>   17.7207    0.0000 </r>
      </set>
      <set comment="kpoint 6">
       <r>   -5.9860    1.0000 </r>
       <r>    4.4885    1.0000 </r>
       <r>    4.9564    1.0000 </r>
       <r>    4.9564    1.0000 </r>
       <r>    7.7286    0.0000 </r>
       <r>    9.0943    0.0000 </r>
       <r>    9.0943    0.0000 </r>
       <r>    9.7230    0.0000 </r>
       <r>   12.2257    0.0000 </r>
       <r>   13.5618    0.0000 </r>
       <r>   14.3605    0.0000 </r>
       <r>   17.1691    0.0000 </r>
      </set>
      <set comment="kpoint 7">
       <r>   -5.6206    1.0000 </r>
       <r>    2.8329    1.0000 </r>
       <r>    4.4916    1.0000 </r>
       <r>    4.6172    1.0000 </r>
       <r>    7.8142    0.0000 </r>
       <r>    9.0810    0.0000 </r>
       <r>    9.7984    0.0000 </r>
       <r>   10.4877    0.0000 </r>
       <r>   12.5519    0.0000 </r>
       <r>   13.6107    0.0000 </r>
       <r>   15.3285    0.0000 </r>
       <r>   16.8462    0.0000 </r>
      </set>
      <set comment="kpoint 8">
       <r>   -4.9725    1.0000 </r>
       <r>    0.9584    1.0000 </r>
       <r>    4.1181    1.0000 </r>
       <r>    4.1906    1.0000 </r>
       <r>    7.9167    0.0000 </r>
       <r>    9.0717    0.0000 </r>
       <r>    9.9757    0.0000 </r>
       <r>   10.9368    0.0000 </r>
       <r>   14.2836    0.0000 </r>
       <r>   14.3444    0.0000 </r>
       <r>   15.1329    0.0000 </r>
       <r>   18.4246    0.0000 </r>
      </set>
      <set comment="kpoint 9">
       <r>   -4.1649    1.0000 </r>
       <r>   -0.6008    1.0000 </r>
       <r>    3.6896    1.0000 </r>
       <r>    4.1080    1.0000 </r>
       <r>    7.7852    0.0000 </r>
       <r>    8.9982    0.0000 </r>
       <r>    9.7092    0.0000 </r>
       <r>   12.3516    0.0000 </r>
       <r>   14.5549    0.0000 </r>
       <r>   15.8660    0.0000 </r>
       <r>   16.5243    0.0000 </r>
       <r>   17.4541    0.0000 </r>
      </set>
      <set comment="kpoint 10">
       <r>   -3.7975    1.0000 </r>
       <r>   -1.1585    1.0000 </r>
       <r>    3.4366    1.0000 </r>
       <r>    4.2439    1.0000 </r>
       <r>    7.7818    0.0000 </r>
       <r>    9.0285    0.0000 </r>
       <r>    9.4521    0.0000 </r>
       <r>   13.7315    0.0000 </r>
       <r>   14.5991    0.0000 </r>
       <r>   14.9739    0.0000 </r>
       <r>   16.4384    0.0000 </r>
       <r>   18.1674    0.0000 </r>
      </set>
      <set comment="kpoint 11">
       <r>   -4.4365    1.0000 </r>
       <r>   -0.1344    1.0000 </r>
       <r>    3.4063    1.0000 </r>
       <r>    4.5672    1.0000 </r>
       <r>    7.9606    0.0000 </r>
       <r>    9.2529    0.0000 </r>
       <r>    9.3277    0.0000 </r>
       <r>   12.9374    0.0000 </r>
       <r>   13.0646    0.0000 </r>
       <r>   14.8954    0.0000 </r>
       <r>   16.7168    0.0000 </r>
       <r>   17.5528    0.0000 </r>
      </set>
      <set comment="kpoint 12">
       <r>   -5.2185    1.0000 </r>
       <r>    1.5628    1.0000 </r>
       <r>    3.6397    1.0000 </r>
       <r>    5.0083    1.0000 </r>
       <r>    8.2806    0.0000 </r>
       <r>    9.1089    0.0000 </r>
       <r>    9.3846    0.0000 </r>
       <r>   11.6243    0.0000 </r>
       <r>   11.9899    0.0000 </r>
       <r>   14.7172    0.0000 </r>
       <r>   15.3767    0.0000 </r>
       <r>   17.5277    0.0000 </r>
      </set>
      <set comment="kpoint 13">
       <r>   -5.7775    1.0000 </r>
       <r>    3.3002    1.0000 </r>
       <r>    4.2845    1.0000 </r>
       <r>    5.3950    1.0000 </r>
       <r>    8.5568    0.0000 </r>
       <r>    8.6104    0.0000 </r>
       <r>    8.8099    0.0000 </r>
       <r>   10.8718    0.0000 </r>
       <r>   12.1080    0.0000 </r>
       <r>   13.3431    0.0000 </r>
       <r>   14.9924    0.0000 </r>
       <r>   16.6742    0.0000 </r>
      </set>
      <set comment="kpoint 14">
       <r>   -5.3562    1.0000 </r>
       <r>    2.5908    1.0000 </r>
       <r>    3.9806    1.0000 </r>
       <r>    3.9806    1.0000 </r>
       <r>    6.9429    0.0000 </r>
       <r>    9.1599    0.0000 </r>
       <r>   10.8305    0.0000 </r>
       <r>   10.8305    0.0000 </r>
       <r>   12.9457    0.0000 </r>
       <r>   14.2679    0.0000 </r>
       <r>   16.3487    0.0000 </r>
       <r>   18.2153    0.0000 </r>
      </set>
      <set comment="kpoint 15">
       <r>   -4.7973    1.0000 </r>
       <r>    1.2820    1.0000 </r>
       <r>    3.3641    1.0000 </r>
       <r>    3.6439    1.0000 </r>
       <r>    7.0960    0.0000 </r>
       <r>    8.7902    0.0000 </r>
       <r>   11.0622    0.0000 </r>
       <r>   11.4038    0.0000 </r>
       <r>   14.7089    0.0000 </r>
       <r>   14.9490    0.0000 </r>
       <r>   16.9102    0.0000 </r>
       <r>   18.6034    0.0000 </r>
      </set>
      <set comment="kpoint 16">
       <r>   -4.0147    1.0000 </r>
       <r>   -0.1585    1.0000 </r>
       <r>    2.6344    1.0000 </r>
       <r>    3.5466    1.0000 </r>
       <r>    7.2812    0.0000 </r>
       <r>    9.7955    0.0000 </r>
       <r>   10.8127    0.0000 </r>
       <r>   11.2278    0.0000 </r>
       <r>   16.1153    0.0000 </r>
       <r>   16.4571    0.0000 </r>
       <r>   16.9907    0.0000 </r>
       <r>   17.3701    0.0000 </r>
      </set>
      <set comment="kpoint 17">
       <r>   -3.3774    1.0000 </r>
       <r>   -1.0764    1.0000 </r>
       <r>    2.1239    1.0000 </r>
       <r>    3.6978    1.0000 </r>
       <r>    7.4272    0.0000 </r>
       <r>   10.5816    0.0000 </r>
       <r>   10.8533    0.0000 </r>
       <r>   11.7427    0.0000 </r>
       <r>   14.6717    0.0000 </r>
       <r>   14.8804    0.0000 </r>
       <r>   17.6089    0.0000 </r>
       <r>   18.6806    0.0000 </r>
      </set>
      <set comment="kpoint 18">
       <r>   -3.7788    1.0000 </r>
       <r>   -0.5132    1.0000 </r>
       <r>    1.9500    1.0000 </r>
       <r>    4.0708    1.0000 </r>
       <r>    7.8014    0.0000 </r>
       <r>   10.5145    0.0000 </r>
       <r>   10.5259    0.0000 </r>
       <r>   12.7314    0.0000 </r>
       <r>   12.8755    0.0000 </r>
       <r>   14.0182    0.0000 </r>
       <r>   17.6279    0.0000 </r>
       <r>   19.7621    0.0000 </r>
      </set>
      <set comment="kpoint 19">
       <r>   -4.5834    1.0000 </r>
       <r>    0.7090    1.0000 </r>
       <r>    2.3336    1.0000 </r>
       <r>    4.5819    1.0000 </r>
       <r>    8.3102    0.0000 </r>
       <r>    9.9101    0.0000 </r>
       <r>   10.2303    0.0000 </r>
       <r>   11.4015    0.0000 </r>
       <r>   11.8489    0.0000 </r>
       <r>   15.9757    0.0000 </r>
       <r>   17.2039    0.0000 </r>
       <r>   17.7993    0.0000 </r>
      </set>
      <set comment="kpoint 20">
       <r>   -4.3280    1.0000 </r>
       <r>    0.6269    1.0000 </r>
       <r>    3.2499    1.0000 </r>
       <r>    3.2499    1.0000 </r>
       <r>    6.3757    0.0000 </r>
       <r>    7.6389    0.0000 </r>
       <r>   12.7901    0.0000 </r>
       <r>   12.7901    0.0000 </r>
       <r>   15.2306    0.0000 </r>
       <r>   15.4410    0.0000 </r>
       <r>   18.5417    0.0000 </r>
       <r>   18.9737    0.0000 </r>
      </set>
      <set comment="kpoint 21">
       <r>   -3.6033    1.0000 </r>
       <r>   -0.4065    1.0000 </r>
       <r>    2.5428    1.0000 </r>
       <r>    3.0951    1.0000 </r>
       <r>    6.6182    0.0000 </r>
       <r>    7.6783    0.0000 </r>
       <r>   13.0800    0.0000 </r>
       <r>   13.1441    0.0000 </r>
       <r>   16.7809    0.0000 </r>
       <r>   16.9424    0.0000 </r>
       <r>   17.3654    0.0000 </r>
       <r>   17.4479    0.0000 </r>
      </set>
      <set comment="kpoint 22">
       <r>   -2.8278    1.0000 </r>
       <r>   -1.2862    1.0000 </r>
       <r>    1.6608    1.0000 </r>
       <r>    3.1998    1.0000 </r>
       <r>    6.8147    0.0000 </r>
       <r>    9.2527    0.0000 </r>
       <r>   12.7769    0.0000 </r>
       <r>   12.8712    0.0000 </r>
       <r>   14.9765    0.0000 </r>
       <r>   15.0519    0.0000 </r>
       <r>   19.0000    0.0000 </r>
       <r>   19.3587    0.0000 </r>
      </set>
      <set comment="kpoint 23">
       <r>   -3.0011    1.0000 </r>
       <r>   -1.0964    1.0000 </r>
       <r>    1.3064    1.0000 </r>
       <r>    3.5480    1.0000 </r>
       <r>    7.2051    0.0000 </r>
       <r>   11.3948    0.0000 </r>
       <r>   12.0248    0.0000 </r>
       <r>   12.5882    0.0000 </r>
       <r>   12.9133    0.0000 </r>
       <r>   13.2694    0.0000 </r>
       <r>   19.8587    0.0000 </r>
       <r>   20.4329    0.0000 </r>
      </set>
      <set comment="kpoint 24">
       <r>   -2.9396    1.0000 </r>
       <r>   -1.2557    1.0000 </r>
       <r>    2.8707    1.0000 </r>
       <r>    2.8707    1.0000 </r>
       <r>    6.2406    0.0000 </r>
       <r>    6.6408    0.0000 </r>
       <r>   14.8349    0.0000 </r>
       <r>   14.8349    0.0000 </r>
       <r>   17.0744    0.0000 </r>
       <r>   17.2591    0.0000 </r>
       <r>   17.2591    0.0000 </r>
       <r>   17.4701    0.0000 </r>
      </set>
      <set comment="kpoint 25">
       <r>   -2.1838    1.0000 </r>
       <r>   -2.0140    1.0000 </r>
       <r>    2.2736    1.0000 </r>
       <r>    2.9074    1.0000 </r>
       <r>    6.4664    0.0000 </r>
       <r>    7.2807    0.0000 </r>
       <r>   14.7101    0.0000 </r>
       <r>   15.0129    0.0000 </r>
       <r>   15.4181    0.0000 </r>
       <r>   15.6567    0.0000 </r>
       <r>   18.9047    0.0000 </r>
       <r>   18.9437    0.0000 </r>
      </set>
      <set comment="kpoint 26">
       <r>   -5.1595    1.0000 </r>
       <r>    1.8438    1.0000 </r>
       <r>    3.3013    1.0000 </r>
       <r>    4.4717    1.0000 </r>
       <r>    7.9931    0.0000 </r>
       <r>    9.3637    0.0000 </r>
       <r>   10.0194    0.0000 </r>
       <r>   10.5916    0.0000 </r>
       <r>   13.0170    0.0000 </r>
       <r>   14.9154    0.0000 </r>
       <r>   16.3335    0.0000 </r>
       <r>   17.3716    0.0000 </r>
      </set>
      <set comment="kpoint 27">
       <r>   -4.4387    1.0000 </r>
       <r>    0.3823    1.0000 </r>
       <r>    2.6989    1.0000 </r>
       <r>    4.0454    1.0000 </r>
       <r>    8.3714    0.0000 </r>
       <r>    9.1915    0.0000 </r>
       <r>   10.3763    0.0000 </r>
       <r>   11.0365    0.0000 </r>
       <r>   13.8871    0.0000 </r>
       <r>   15.8734    0.0000 </r>
       <r>   17.0997    0.0000 </r>
       <r>   17.7317    0.0000 </r>
      </set>
      <set comment="kpoint 28">
       <r>   -3.6616    1.0000 </r>
       <r>   -0.8765    1.0000 </r>
       <r>    2.5036    1.0000 </r>
       <r>    3.7308    1.0000 </r>
       <r>    8.4540    0.0000 </r>
       <r>    8.8152    0.0000 </r>
       <r>   10.9755    0.0000 </r>
       <r>   12.0970    0.0000 </r>
       <r>   14.1752    0.0000 </r>
       <r>   15.4934    0.0000 </r>
       <r>   16.9315    0.0000 </r>
       <r>   18.3830    0.0000 </r>
      </set>
      <set comment="kpoint 29">
       <r>   -4.1578    1.0000 </r>
       <r>    0.3305    1.0000 </r>
       <r>    2.6032    1.0000 </r>
       <r>    3.2794    1.0000 </r>
       <r>    7.4509    0.0000 </r>
       <r>    8.4577    0.0000 </r>
       <r>   11.0019    0.0000 </r>
       <r>   12.7030    0.0000 </r>
       <r>   14.9642    0.0000 </r>
       <r>   16.6873    0.0000 </r>
       <r>   17.1566    0.0000 </r>
       <r>   18.7139    0.0000 </r>
      </set>
      <set comment="kpoint 30">
       <r>   -3.3488    1.0000 </r>
       <r>   -0.7328    1.0000 </r>
       <r>    1.9518    1.0000 </r>
       <r>    2.9816    1.0000 </r>
       <r>    7.8533    0.0000 </r>
       <r>    9.5365    0.0000 </r>
       <r>   10.5679    0.0000 </r>
       <r>   13.0977    0.0000 </r>
       <r>   14.4344    0.0000 </r>
       <r>   16.3111    0.0000 </r>
       <r>   17.7394    0.0000 </r>
       <r>   19.2382    0.0000 </r>
      </set>
      <set comment="kpoint 31">
       <r>   -2.9942    1.0000 </r>
       <r>   -1.1467    1.0000 </r>
       <r>    1.5740    1.0000 </r>
       <r>    3.0910    1.0000 </r>
       <r>    8.1395    0.0000 </r>
       <r>   10.1080    0.0000 </r>
       <r>   11.6337    0.0000 </r>
       <r>   12.1626    0.0000 </r>
       <r>   13.0202    0.0000 </r>
       <r>   15.5510    0.0000 </r>
       <r>   18.4689    0.0000 </r>
       <r>   19.1636    0.0000 </r>
      </set>
      <set comment="kpoint 32">
       <r>   -3.6784    1.0000 </r>
       <r>   -0.3619    1.0000 </r>
       <r>    1.7203    1.0000 </r>
       <r>    3.5175    1.0000 </r>
       <r>    8.6383    0.0000 </r>
       <r>    9.6162    0.0000 </r>
       <r>   10.4631    0.0000 </r>
       <r>   12.4700    0.0000 </r>
       <r>   14.0194    0.0000 </r>
       <r>   14.1040    0.0000 </r>
       <r>   18.9067    0.0000 </r>
       <r>   19.5288    0.0000 </r>
      </set>
      <set comment="kpoint 33">
       <r>   -2.8272    1.0000 </r>
       <r>   -1.2734    1.0000 </r>
       <r>    2.3222    1.0000 </r>
       <r>    2.5289    1.0000 </r>
       <r>    7.2836    0.0000 </r>
       <r>    7.5960    0.0000 </r>
       <r>   12.7572    0.0000 </r>
       <r>   14.5923    0.0000 </r>
       <r>   15.1266    0.0000 </r>
       <r>   16.8308    0.0000 </r>
       <r>   17.6256    0.0000 </r>
       <r>   19.2332    0.0000 </r>
      </set>
      <set comment="kpoint 34">
       <r>   -2.3193    1.0000 </r>
       <r>   -1.7246    1.0000 </r>
       <r>    1.6194    1.0000 </r>
       <r>    2.6148    1.0000 </r>
       <r>    7.6508    0.0000 </r>
       <r>    9.2698    0.0000 </r>
       <r>   12.2177    0.0000 </r>
       <r>   12.4737    0.0000 </r>
       <r>   14.9758    0.0000 </r>
       <r>   15.8182    0.0000 </r>
       <r>   18.5433    0.0000 </r>
       <r>   19.5816    0.0000 </r>
      </set>
      <set comment="kpoint 35">
       <r>   -2.5598    1.0000 </r>
       <r>   -1.4183    1.0000 </r>
       <r>    1.6562    1.0000 </r>
       <r>    2.2855    1.0000 </r>
       <r>    9.4542    0.0000 </r>
       <r>    9.5655    0.0000 </r>
       <r>   10.1895    0.0000 </r>
       <r>   11.9285    0.0000 </r>
       <r>   14.9368    0.0000 </r>
       <r>   16.3621    0.0000 </r>
       <r>   18.1465    0.0000 </r>
       <r>   19.5079    0.0000 </r>
      </set>
     </set>
    </set>
   </array>
  </eigenvalues>
  <separator name="orbital magnetization" >
   <v name="MAGDIPOLOUT">      0.00000000      0.00000000      0.00000000</v>
  </separator>
  <dos>
   <i name="efermi">      5.85113996 </i>
   <total>
    <array>
     <dimension dim="1">gridpoints</dimension>
     <dimension dim="2">spin</dimension>
     <field>energy</field>
     <field>total</field>
     <field>integrated</field>
     <set>
      <set comment="spin 1">
       <r>    -7.5295     0.0000     0.0000 </r>
       <r>    -7.4318     0.0000     0.0000 </r>
       <r>    -7.3342     0.0000     0.0000 </r>
       <r>    -7.2365     0.0000     0.0000 </r>
       <r>    -7.1389     0.0000     0.0000 </r>
       <r>    -7.0412     0.0000     0.0000 </r>
       <r>    -6.9436     0.0000     0.0000 </r>
       <r>    -6.8459     0.0000     0.0000 </r>
       <r>    -6.7483     0.0000     0.0000 </r>
       <r>    -6.6507     0.0000     0.0000 </r>
       <r>    -6.5530     0.0000     0.0000 </r>
       <r>    -6.4554     0.0000     0.0000 </r>
       <r>    -6.3577     0.0000     0.0000 </r>
       <r>    -6.2601     0.0011     0.0001 </r>
       <r>    -6.1624     0.0226     0.0023 </r>
       <r>    -6.0648     0.0596     0.0081 </r>
       <r>    -5.9671     0.2835     0.0358 </r>
       <r>    -5.8695     0.0561     0.0413 </r>
       <r>    -5.7718     0.1884     0.0597 </r>
       <r>    -5.6742     0.1908     0.0783 </r>
       <r>    -5.5765     0.6637     0.1431 </r>
       <r>    -5.4789     0.1910     0.1618 </r>
       <r>    -5.3812     0.0411     0.1658 </r>
       <r>    -5.2836     0.1472     0.1802 </r>
       <r>    -5.1860     0.6881     0.2474 </r>
       <r>    -5.0883     0.6270     0.3086 </r>
       <r>    -4.9907     0.2192     0.3300 </r>
       <r>    -4.8930     0.4863     0.3775 </r>
       <r>    -4.7954     0.5446     0.4307 </r>
       <r>    -4.6977     0.3365     0.4635 </r>
       <r>    -4.6001     0.1089     0.4741 </r>
       <r>    -4.5024     0.2953     0.5030 </r>
       <r>    -4.4048     1.6080     0.6600 </r>
       <r>    -4.3071     0.4710     0.7060 </r>
       <r>    -4.2095     0.1653     0.7221 </r>
       <r>    -4.1118     1.1580     0.8352 </r>
       <r>    -4.0142     0.6290     0.8966 </r>
       <r>    -3.9166     0.3407     0.9299 </r>
       <r>    -3.8189     0.2715     0.9564 </r>
       <r>    -3.7213     1.1715     1.0708 </r>
       <r>    -3.6236     1.8896     1.2553 </r>
       <r>    -3.5260     0.7051     1.3241 </r>
       <r>    -3.4283     0.0767     1.3316 </r>
       <r>    -3.3307     1.4832     1.4765 </r>
       <r>    -3.2330     0.4720     1.5226 </r>
       <r>    -3.1354     0.0008     1.5226 </r>
       <r>    -3.0377     0.1983     1.5420 </r>
       <r>    -2.9401     1.4728     1.6858 </r>
       <r>    -2.8424     0.6359     1.7479 </r>
       <r>    -2.7448     0.8829     1.8341 </r>
       <r>    -2.6471     0.0176     1.8358 </r>
       <r>    -2.5495     0.4098     1.8758 </r>
       <r>    -2.4519     0.2593     1.9012 </r>
       <r>    -2.3542     0.1096     1.9119 </r>
       <r>    -2.2566     0.5464     1.9652 </r>
       <r>    -2.1589     0.2750     1.9921 </r>
       <r>    -2.0613     0.1116     2.0030 </r>
       <r>    -1.9636     0.2807     2.0304 </r>
       <r>    -1.8660     0.0261     2.0329 </r>
       <r>    -1.7683     0.0729     2.0400 </r>
       <r>    -1.6707     0.5585     2.0946 </r>
       <r>    -1.5730     0.0429     2.0988 </r>
       <r>    -1.4754     0.0358     2.1023 </r>
       <r>    -1.3777     0.5580     2.1567 </r>
       <r>    -1.2801     0.7924     2.2341 </r>
       <r>    -1.1825     1.1792     2.3493 </r>
       <r>    -1.0848     2.0752     2.5519 </r>
       <r>    -0.9872     0.7657     2.6267 </r>
       <r>    -0.8895     0.5249     2.6779 </r>
       <r>    -0.7919     0.9207     2.7678 </r>
       <r>    -0.6942     1.1131     2.8765 </r>
       <r>    -0.5966     0.5579     2.9310 </r>
       <r>    -0.4989     0.7436     3.0036 </r>
       <r>    -0.4013     0.6960     3.0716 </r>
       <r>    -0.3036     0.8481     3.1544 </r>
       <r>    -0.2060     0.1096     3.1651 </r>
       <r>    -0.1083     1.0656     3.2691 </r>
       <r>    -0.0107     0.2079     3.2894 </r>
       <r>     0.0870     0.0002     3.2894 </r>
       <r>     0.1846     0.0000     3.2894 </r>
       <r>     0.2822     0.0684     3.2961 </r>
       <r>     0.3799     1.3736     3.4302 </r>
       <r>     0.4775     0.8009     3.5084 </r>
       <r>     0.5752     0.0169     3.5101 </r>
       <r>     0.6728     0.1917     3.5288 </r>
       <r>     0.7705     0.2880     3.5569 </r>
       <r>     0.8681     0.0175     3.5587 </r>
       <r>     0.9658     0.3895     3.5967 </r>
       <r>     1.0634     0.2802     3.6240 </r>
       <r>     1.1611     0.0012     3.6242 </r>
       <r>     1.2587     0.2017     3.6439 </r>
       <r>     1.3564     0.7710     3.7191 </r>
       <r>     1.4540     0.0397     3.7230 </r>
       <r>     1.5516     0.6287     3.7844 </r>
       <r>     1.6493     2.4568     4.0243 </r>
       <r>     1.7469     1.4749     4.1683 </r>
       <r>     1.8446     0.5042     4.2176 </r>
       <r>     1.9422     1.1359     4.3285 </r>
       <r>     2.0399     1.2092     4.4466 </r>
       <r>     2.1375     0.4459     4.4901 </r>
       <r>     2.2352     0.4682     4.5358 </r>
       <r>     2.3328     1.5079     4.6831 </r>
       <r>     2.4305     0.5330     4.7351 </r>
       <r>     2.5281     1.5760     4.8890 </r>
       <r>     2.6258     2.4427     5.1275 </r>
       <r>     2.7234     1.8590     5.3090 </r>
       <r>     2.8210     0.6107     5.3687 </r>
       <r>     2.9187     0.9612     5.4625 </r>
       <r>     3.0163     1.2710     5.5866 </r>
       <r>     3.1140     1.6681     5.7495 </r>
       <r>     3.2116     1.0384     5.8509 </r>
       <r>     3.3093     1.6818     6.0151 </r>
       <r>     3.4069     1.5935     6.1707 </r>
       <r>     3.5046     1.2853     6.2962 </r>
       <r>     3.6022     1.4685     6.4396 </r>
       <r>     3.6999     2.1860     6.6531 </r>
       <r>     3.7975     1.6983     6.8189 </r>
       <r>     3.8952     0.0448     6.8233 </r>
       <r>     3.9928     0.3133     6.8539 </r>
       <r>     4.0905     2.0686     7.0559 </r>
       <r>     4.1881     1.6589     7.2179 </r>
       <r>     4.2857     1.2371     7.3387 </r>
       <r>     4.3834     0.3492     7.3728 </r>
       <r>     4.4810     1.0541     7.4757 </r>
       <r>     4.5787     1.5935     7.6313 </r>
       <r>     4.6763     1.3569     7.7638 </r>
       <r>     4.7740     0.0869     7.7723 </r>
       <r>     4.8716     0.0043     7.7727 </r>
       <r>     4.9693     0.5338     7.8248 </r>
       <r>     5.0669     0.8886     7.9116 </r>
       <r>     5.1646     0.0344     7.9150 </r>
       <r>     5.2622     0.0002     7.9150 </r>
       <r>     5.3599     0.1617     7.9308 </r>
       <r>     5.4575     0.6029     7.9896 </r>
       <r>     5.5551     0.0253     7.9921 </r>
       <r>     5.6528     0.0678     7.9987 </r>
       <r>     5.7504     0.0131     8.0000 </r>
       <r>     5.8481     0.0000     8.0000 </r>
       <r>     5.9457     0.0000     8.0000 </r>
       <r>     6.0434     0.0000     8.0000 </r>
       <r>     6.1410     0.0004     8.0000 </r>
       <r>     6.2387     0.0803     8.0079 </r>
       <r>     6.3363     0.1098     8.0186 </r>
       <r>     6.4340     0.1990     8.0380 </r>
       <r>     6.5316     0.2790     8.0653 </r>
       <r>     6.6293     0.4887     8.1130 </r>
       <r>     6.7269     0.3625     8.1484 </r>
       <r>     6.8246     0.4090     8.1883 </r>
       <r>     6.9222     0.3091     8.2185 </r>
       <r>     7.0198     0.1316     8.2314 </r>
       <r>     7.1175     0.6162     8.2915 </r>
       <r>     7.2151     0.5294     8.3432 </r>
       <r>     7.3128     1.5618     8.4957 </r>
       <r>     7.4104     0.7286     8.5669 </r>
       <r>     7.5081     1.0112     8.6656 </r>
       <r>     7.6057     0.5637     8.7207 </r>
       <r>     7.7034     1.6737     8.8841 </r>
       <r>     7.8010     1.9801     9.0774 </r>
       <r>     7.8987     2.5444     9.3259 </r>
       <r>     7.9963     1.5044     9.4728 </r>
       <r>     8.0940     0.6395     9.5352 </r>
       <r>     8.1916     1.3258     9.6647 </r>
       <r>     8.2892     0.6278     9.7260 </r>
       <r>     8.3869     1.4537     9.8679 </r>
       <r>     8.4845     2.0972    10.0727 </r>
       <r>     8.5822     1.1253    10.1826 </r>
       <r>     8.6798     0.9075    10.2712 </r>
       <r>     8.7775     0.6059    10.3304 </r>
       <r>     8.8751     1.7937    10.5055 </r>
       <r>     8.9728     0.4303    10.5476 </r>
       <r>     9.0704     2.5073    10.7924 </r>
       <r>     9.1681     2.5664    11.0430 </r>
       <r>     9.2657     2.3244    11.2699 </r>
       <r>     9.3634     1.9373    11.4591 </r>
       <r>     9.4610     1.7349    11.6285 </r>
       <r>     9.5587     1.8540    11.8096 </r>
       <r>     9.6563     1.3481    11.9412 </r>
       <r>     9.7539     0.9326    12.0323 </r>
       <r>     9.8516     1.2445    12.1538 </r>
       <r>     9.9492     0.7113    12.2233 </r>
       <r>    10.0469     1.1482    12.3354 </r>
       <r>    10.1445     1.3215    12.4644 </r>
       <r>    10.2422     0.9736    12.5595 </r>
       <r>    10.3398     0.3741    12.5960 </r>
       <r>    10.4375     1.3132    12.7243 </r>
       <r>    10.5351     2.3365    12.9524 </r>
       <r>    10.6328     2.7113    13.2172 </r>
       <r>    10.7304     0.1859    13.2353 </r>
       <r>    10.8281     0.7996    13.3134 </r>
       <r>    10.9257     1.5518    13.4649 </r>
       <r>    11.0233     2.6253    13.7213 </r>
       <r>    11.1210     1.7155    13.8888 </r>
       <r>    11.2186     0.3114    13.9192 </r>
       <r>    11.3163     0.4136    13.9596 </r>
       <r>    11.4139     0.8589    14.0435 </r>
       <r>    11.5116     0.4818    14.0905 </r>
       <r>    11.6092     0.5556    14.1447 </r>
       <r>    11.7069     1.5400    14.2951 </r>
       <r>    11.8045     0.6121    14.3549 </r>
       <r>    11.9022     0.6044    14.4139 </r>
       <r>    11.9998     1.1038    14.5217 </r>
       <r>    12.0975     1.3769    14.6561 </r>
       <r>    12.1951     2.1483    14.8659 </r>
       <r>    12.2928     0.8974    14.9536 </r>
       <r>    12.3904     0.5809    15.0103 </r>
       <r>    12.4880     1.0140    15.1093 </r>
       <r>    12.5857     1.1309    15.2197 </r>
       <r>    12.6833     0.7198    15.2900 </r>
       <r>    12.7810     2.3177    15.5163 </r>
       <r>    12.8786     1.6361    15.6761 </r>
       <r>    12.9763     2.1511    15.8861 </r>
       <r>    13.0739     2.8825    16.1676 </r>
       <r>    13.1716     2.2665    16.3889 </r>
       <r>    13.2692     0.3537    16.4234 </r>
       <r>    13.3669     0.6346    16.4854 </r>
       <r>    13.4645     0.3646    16.5210 </r>
       <r>    13.5622     0.3484    16.5550 </r>
       <r>    13.6598     0.9302    16.6459 </r>
       <r>    13.7574     0.5631    16.7008 </r>
       <r>    13.8551     0.4022    16.7401 </r>
       <r>    13.9527     1.1011    16.8476 </r>
       <r>    14.0504     1.1449    16.9594 </r>
       <r>    14.1480     1.2524    17.0817 </r>
       <r>    14.2457     1.3107    17.2097 </r>
       <r>    14.3433     1.0877    17.3159 </r>
       <r>    14.4410     1.2579    17.4387 </r>
       <r>    14.5386     0.8760    17.5243 </r>
       <r>    14.6363     1.9546    17.7151 </r>
       <r>    14.7339     2.0917    17.9194 </r>
       <r>    14.8316     0.7312    17.9908 </r>
       <r>    14.9292     2.5027    18.2352 </r>
       <r>    15.0269     4.1396    18.6394 </r>
       <r>    15.1245     1.4504    18.7810 </r>
       <r>    15.2221     0.8318    18.8622 </r>
       <r>    15.3198     0.6305    18.9238 </r>
       <r>    15.4174     1.4128    19.0618 </r>
       <r>    15.5151     1.5547    19.2136 </r>
       <r>    15.6127     1.4886    19.3589 </r>
       <r>    15.7104     0.3351    19.3916 </r>
       <r>    15.8080     0.3592    19.4267 </r>
       <r>    15.9057     2.0301    19.6249 </r>
       <r>    16.0033     0.5930    19.6829 </r>
       <r>    16.1010     0.3037    19.7125 </r>
       <r>    16.1986     0.4508    19.7565 </r>
       <r>    16.2963     0.8390    19.8385 </r>
       <r>    16.3939     2.3774    20.0706 </r>
       <r>    16.4915     1.4033    20.2076 </r>
       <r>    16.5892     0.6935    20.2754 </r>
       <r>    16.6868     0.7036    20.3441 </r>
       <r>    16.7845     1.4970    20.4902 </r>
       <r>    16.8821     1.9028    20.6760 </r>
       <r>    16.9798     2.5994    20.9299 </r>
       <r>    17.0774     1.0990    21.0372 </r>
       <r>    17.1751     1.6838    21.2016 </r>
       <r>    17.2727     0.7790    21.2777 </r>
       <r>    17.3704     1.1783    21.3927 </r>
       <r>    17.4680     1.9993    21.5879 </r>
       <r>    17.5657     1.6247    21.7466 </r>
       <r>    17.6633     2.0532    21.9471 </r>
       <r>    17.7609     2.4762    22.1889 </r>
       <r>    17.8586     0.9432    22.2810 </r>
       <r>    17.9562     0.0165    22.2826 </r>
       <r>    18.0539     0.0034    22.2829 </r>
       <r>    18.1515     0.5982    22.3413 </r>
       <r>    18.2492     0.8790    22.4272 </r>
       <r>    18.3468     0.2530    22.4519 </r>
       <r>    18.4445     1.8898    22.6364 </r>
       <r>    18.5421     1.6805    22.8005 </r>
       <r>    18.6398     1.0928    22.9072 </r>
       <r>    18.7374     1.1508    23.0196 </r>
       <r>    18.8351     0.2298    23.0420 </r>
       <r>    18.9327     0.9281    23.1326 </r>
       <r>    19.0304     1.1692    23.2468 </r>
       <r>    19.1280     0.5073    23.2963 </r>
       <r>    19.2256     1.8511    23.4771 </r>
       <r>    19.3233     1.4017    23.6140 </r>
       <r>    19.4209     0.5610    23.6687 </r>
       <r>    19.5186     0.7236    23.7394 </r>
       <r>    19.6162     1.2046    23.8570 </r>
       <r>    19.7139     0.1738    23.8740 </r>
       <r>    19.8115     0.5922    23.9318 </r>
       <r>    19.9092     0.3352    23.9646 </r>
       <r>    20.0068     0.0259    23.9671 </r>
       <r>    20.1045     0.0000    23.9671 </r>
       <r>    20.2021     0.0000    23.9671 </r>
       <r>    20.2998     0.0000    23.9671 </r>
       <r>    20.3974     0.0531    23.9723 </r>
       <r>    20.4950     0.2707    23.9987 </r>
       <r>    20.5927     0.0133    24.0000 </r>
       <r>    20.6903     0.0000    24.0000 </r>
       <r>    20.7880     0.0000    24.0000 </r>
       <r>    20.8856     0.0000    24.0000 </r>
       <r>    20.9833     0.0000    24.0000 </r>
       <r>    21.0809     0.0000    24.0000 </r>
       <r>    21.1786     0.0000    24.0000 </r>
       <r>    21.2762     0.0000    24.0000 </r>
       <r>    21.3739     0.0000    24.0000 </r>
       <r>    21.4715     0.0000    24.0000 </r>
       <r>    21.5692     0.0000    24.0000 </r>
       <r>    21.6668     0.0000    24.0000 </r>
       <r>    21.7645     0.0000    24.0000 </r>
      </set>
     </set>
    </array>
   </total>
  </dos>
 </calculation>
 <structure name="finalpos" >
  <crystal>
   <varray name="basis" >
    <v>       0.00000000       2.73431331       2.73431331 </v>
    <v>       2.73431331       0.00000000       2.73431331 </v>
    <v>       2.73431331       2.73431331      -0.00000000 </v>
   </varray>
   <i name="volume">     40.88601902 </i>
   <varray name="rec_basis" >
    <v>      -0.18286127       0.18286127       0.18286127 </v>
    <v>       0.18286127      -0.18286127       0.18286127 </v>
    <v>       0.18286127       0.18286127      -0.18286127 </v>
   </varray>
  </crystal>
  <varray name="positions" >
   <v>       0.00000000       0.00000000       0.00000000 </v>
   <v>       0.25000000       0.25000000       0.25000000 </v>
  </varray>
 </structure>
</modeling>
