  16  16   0   0
  0.2044301E+02  0.7733806E-09  0.7733806E-09  0.7733806E-09  0.5000000E-15
   1.0000000000000000E-004
  CAR 
 unknown system                          
      8.01611238     -6.61715705  301      6.21286678      1.00000000
     -6.617  0.0000E+00  0.0000E+00
     -6.568  0.0000E+00  0.0000E+00
     -6.520  0.0000E+00  0.0000E+00
     -6.471  0.0000E+00  0.0000E+00
     -6.422  0.0000E+00  0.0000E+00
     -6.373  0.0000E+00  0.0000E+00
     -6.324  0.0000E+00  0.0000E+00
     -6.276  0.0000E+00  0.0000E+00
     -6.227  0.1525E-12  0.7438E-14
     -6.178  0.3259E-08  0.1590E-09
     -6.129  0.1076E-04  0.5252E-06
     -6.081  0.5639E-02  0.2756E-03
     -6.032  0.4858E+00  0.2397E-01
     -5.983  0.7298E+01  0.3800E+00
     -5.934  0.2059E+02  0.1384E+01
     -5.885  0.1140E+02  0.1940E+01
     -5.837  0.1206E+01  0.1999E+01
     -5.788  0.2269E-01  0.2000E+01
     -5.739  0.7119E-04  0.2000E+01
     -5.690  0.3570E-07  0.2000E+01
     -5.642  0.2795E-11  0.2000E+01
     -5.593  0.0000E+00  0.2000E+01
     -5.544  0.0000E+00  0.2000E+01
     -5.495  0.0000E+00  0.2000E+01
     -5.446  0.0000E+00  0.2000E+01
     -5.398  0.0000E+00  0.2000E+01
     -5.349  0.0000E+00  0.2000E+01
     -5.300  0.0000E+00  0.2000E+01
     -5.251  0.0000E+00  0.2000E+01
     -5.203  0.0000E+00  0.2000E+01
     -5.154  0.0000E+00  0.2000E+01
     -5.105  0.0000E+00  0.2000E+01
     -5.056  0.0000E+00  0.2000E+01
     -5.007  0.0000E+00  0.2000E+01
     -4.959  0.0000E+00  0.2000E+01
     -4.910  0.0000E+00  0.2000E+01
     -4.861  0.0000E+00  0.2000E+01
     -4.812  0.0000E+00  0.2000E+01
     -4.764  0.0000E+00  0.2000E+01
     -4.715  0.0000E+00  0.2000E+01
     -4.666  0.0000E+00  0.2000E+01
     -4.617  0.0000E+00  0.2000E+01
     -4.568  0.0000E+00  0.2000E+01
     -4.520  0.0000E+00  0.2000E+01
     -4.471  0.0000E+00  0.2000E+01
     -4.422  0.0000E+00  0.2000E+01
     -4.373  0.0000E+00  0.2000E+01
     -4.325  0.0000E+00  0.2000E+01
     -4.276  0.0000E+00  0.2000E+01
     -4.227  0.0000E+00  0.2000E+01
     -4.178  0.0000E+00  0.2000E+01
     -4.130  0.0000E+00  0.2000E+01
     -4.081  0.0000E+00  0.2000E+01
     -4.032  0.0000E+00  0.2000E+01
     -3.983  0.0000E+00  0.2000E+01
     -3.934  0.1186E-10  0.2000E+01
     -3.886  0.1174E-06  0.2000E+01
     -3.837  0.1843E-03  0.2000E+01
     -3.788  0.4830E-01  0.2002E+01
     -3.739  0.2360E+01  0.2117E+01
     -3.691  0.2576E+02  0.3374E+01
     -3.642  0.7309E+02  0.6939E+01
     -3.593  0.5350E+02  0.9549E+01
     -3.544  0.8945E+01  0.9985E+01
     -3.495  0.2962E+00  0.1000E+02
     -3.447  0.1740E-02  0.1000E+02
     -3.398  0.1694E-05  0.1000E+02
     -3.349  0.2630E-09  0.1000E+02
     -3.300  0.0000E+00  0.1000E+02
     -3.252  0.0000E+00  0.1000E+02
     -3.203  0.0000E+00  0.1000E+02
     -3.154  0.0000E+00  0.1000E+02
     -3.105  0.0000E+00  0.1000E+02
     -3.056  0.0000E+00  0.1000E+02
     -3.008  0.0000E+00  0.1000E+02
     -2.959  0.0000E+00  0.1000E+02
     -2.910  0.0000E+00  0.1000E+02
     -2.861  0.0000E+00  0.1000E+02
     -2.813  0.0000E+00  0.1000E+02
     -2.764  0.0000E+00  0.1000E+02
     -2.715  0.0000E+00  0.1000E+02
     -2.666  0.0000E+00  0.1000E+02
     -2.617  0.0000E+00  0.1000E+02
     -2.569  0.0000E+00  0.1000E+02
     -2.520  0.0000E+00  0.1000E+02
     -2.471  0.0000E+00  0.1000E+02
     -2.422  0.0000E+00  0.1000E+02
     -2.374  0.0000E+00  0.1000E+02
     -2.325  0.0000E+00  0.1000E+02
     -2.276  0.0000E+00  0.1000E+02
     -2.227  0.0000E+00  0.1000E+02
     -2.178  0.6191E-12  0.1000E+02
     -2.130  0.1033E-07  0.1000E+02
     -2.081  0.2688E-04  0.1000E+02
     -2.032  0.1120E-01  0.1000E+02
     -1.983  0.7980E+00  0.1004E+02
     -1.935  0.1186E+02  0.1062E+02
     -1.886  0.5636E+02  0.1337E+02
     -1.837  0.1053E+03  0.1850E+02
     -1.788  0.6148E+02  0.2150E+02
     -1.739  0.9826E+01  0.2198E+02
     -1.691  0.3921E+00  0.2200E+02
     -1.642  0.3271E-02  0.2200E+02
     -1.593  0.4853E-05  0.2200E+02
     -1.544  0.1174E-08  0.2200E+02
     -1.496  0.4552E-13  0.2200E+02
     -1.447  0.0000E+00  0.2200E+02
     -1.398  0.0000E+00  0.2200E+02
     -1.349  0.0000E+00  0.2200E+02
     -1.300  0.7393E-11  0.2200E+02
     -1.252  0.8047E-07  0.2200E+02
     -1.203  0.1397E-03  0.2200E+02
     -1.154  0.4078E-01  0.2200E+02
     -1.105  0.2192E+01  0.2211E+02
     -1.057  0.2485E+02  0.2332E+02
     -1.008  0.6925E+02  0.2670E+02
     -0.959  0.5434E+02  0.2935E+02
     -0.910  0.1258E+02  0.2996E+02
     -0.861  0.7528E+00  0.3000E+02
     -0.813  0.9314E-02  0.3000E+02
     -0.764  0.2026E-04  0.3000E+02
     -0.715  0.7148E-08  0.3000E+02
     -0.666  0.3915E-12  0.3000E+02
     -0.618  0.0000E+00  0.3000E+02
     -0.569  0.0000E+00  0.3000E+02
     -0.520  0.0000E+00  0.3000E+02
     -0.471  0.0000E+00  0.3000E+02
     -0.422  0.0000E+00  0.3000E+02
     -0.374  0.0000E+00  0.3000E+02
     -0.325  0.0000E+00  0.3000E+02
     -0.276  0.0000E+00  0.3000E+02
     -0.227  0.0000E+00  0.3000E+02
     -0.179  0.0000E+00  0.3000E+02
     -0.130  0.0000E+00  0.3000E+02
     -0.081  0.0000E+00  0.3000E+02
     -0.032  0.0000E+00  0.3000E+02
      0.017  0.0000E+00  0.3000E+02
      0.065  0.0000E+00  0.3000E+02
      0.114  0.0000E+00  0.3000E+02
      0.163  0.0000E+00  0.3000E+02
      0.212  0.0000E+00  0.3000E+02
      0.260  0.0000E+00  0.3000E+02
      0.309  0.0000E+00  0.3000E+02
      0.358  0.0000E+00  0.3000E+02
      0.407  0.0000E+00  0.3000E+02
      0.456  0.0000E+00  0.3000E+02
      0.504  0.0000E+00  0.3000E+02
      0.553  0.0000E+00  0.3000E+02
      0.602  0.0000E+00  0.3000E+02
      0.651  0.0000E+00  0.3000E+02
      0.699  0.0000E+00  0.3000E+02
      0.748  0.0000E+00  0.3000E+02
      0.797  0.0000E+00  0.3000E+02
      0.846  0.0000E+00  0.3000E+02
      0.895  0.0000E+00  0.3000E+02
      0.943  0.0000E+00  0.3000E+02
      0.992  0.0000E+00  0.3000E+02
      1.041  0.0000E+00  0.3000E+02
      1.090  0.0000E+00  0.3000E+02
      1.138  0.0000E+00  0.3000E+02
      1.187  0.0000E+00  0.3000E+02
      1.236  0.0000E+00  0.3000E+02
      1.285  0.0000E+00  0.3000E+02
      1.334  0.0000E+00  0.3000E+02
      1.382  0.0000E+00  0.3000E+02
      1.431  0.0000E+00  0.3000E+02
      1.480  0.0000E+00  0.3000E+02
      1.529  0.0000E+00  0.3000E+02
      1.577  0.0000E+00  0.3000E+02
      1.626  0.0000E+00  0.3000E+02
      1.675  0.0000E+00  0.3000E+02
      1.724  0.0000E+00  0.3000E+02
      1.773  0.0000E+00  0.3000E+02
      1.821  0.0000E+00  0.3000E+02
      1.870  0.0000E+00  0.3000E+02
      1.919  0.0000E+00  0.3000E+02
      1.968  0.0000E+00  0.3000E+02
      2.016  0.0000E+00  0.3000E+02
      2.065  0.0000E+00  0.3000E+02
      2.114  0.0000E+00  0.3000E+02
      2.163  0.0000E+00  0.3000E+02
      2.212  0.0000E+00  0.3000E+02
      2.260  0.0000E+00  0.3000E+02
      2.309  0.0000E+00  0.3000E+02
      2.358  0.0000E+00  0.3000E+02
      2.407  0.0000E+00  0.3000E+02
      2.455  0.0000E+00  0.3000E+02
      2.504  0.0000E+00  0.3000E+02
      2.553  0.0000E+00  0.3000E+02
      2.602  0.0000E+00  0.3000E+02
      2.651  0.0000E+00  0.3000E+02
      2.699  0.0000E+00  0.3000E+02
      2.748  0.4552E-14  0.3000E+02
      2.797  0.1522E-09  0.3000E+02
      2.846  0.9933E-06  0.3000E+02
      2.894  0.1083E-02  0.3000E+02
      2.943  0.2121E+00  0.3001E+02
      2.992  0.8148E+01  0.3041E+02
      3.041  0.6640E+02  0.3365E+02
      3.090  0.1198E+03  0.3949E+02
      3.138  0.4752E+02  0.4181E+02
      3.187  0.3901E+01  0.4200E+02
      3.236  0.6086E-01  0.4200E+02
      3.285  0.1680E-03  0.4200E+02
      3.333  0.7804E-07  0.4200E+02
      3.382  0.5909E-11  0.4200E+02
      3.431  0.0000E+00  0.4200E+02
      3.480  0.0000E+00  0.4200E+02
      3.529  0.0000E+00  0.4200E+02
      3.577  0.0000E+00  0.4200E+02
      3.626  0.0000E+00  0.4200E+02
      3.675  0.0000E+00  0.4200E+02
      3.724  0.0000E+00  0.4200E+02
      3.772  0.0000E+00  0.4200E+02
      3.821  0.0000E+00  0.4200E+02
      3.870  0.0000E+00  0.4200E+02
      3.919  0.0000E+00  0.4200E+02
      3.968  0.0000E+00  0.4200E+02
      4.016  0.0000E+00  0.4200E+02
      4.065  0.0000E+00  0.4200E+02
      4.114  0.0000E+00  0.4200E+02
      4.163  0.0000E+00  0.4200E+02
      4.211  0.0000E+00  0.4200E+02
      4.260  0.0000E+00  0.4200E+02
      4.309  0.0000E+00  0.4200E+02
      4.358  0.2276E-14  0.4200E+02
      4.407  0.9050E-10  0.4200E+02
      4.455  0.6075E-06  0.4200E+02
      4.504  0.6419E-03  0.4200E+02
      4.553  0.1108E+00  0.4201E+02
      4.602  0.3458E+01  0.4217E+02
      4.650  0.2714E+02  0.4350E+02
      4.699  0.9448E+02  0.4811E+02
      4.748  0.1372E+03  0.5480E+02
      4.797  0.5879E+02  0.5767E+02
      4.846  0.6635E+01  0.5799E+02
      4.894  0.1780E+00  0.5800E+02
      4.943  0.9699E-03  0.5800E+02
      4.992  0.9381E-06  0.5800E+02
      5.041  0.1486E-09  0.5800E+02
      5.089  0.4552E-14  0.5800E+02
      5.138  0.0000E+00  0.5800E+02
      5.187  0.0000E+00  0.5800E+02
      5.236  0.0000E+00  0.5800E+02
      5.285  0.0000E+00  0.5800E+02
      5.333  0.0000E+00  0.5800E+02
      5.382  0.0000E+00  0.5800E+02
      5.431  0.0000E+00  0.5800E+02
      5.480  0.0000E+00  0.5800E+02
      5.528  0.0000E+00  0.5800E+02
      5.577  0.0000E+00  0.5800E+02
      5.626  0.1034E-10  0.5800E+02
      5.675  0.1043E-06  0.5800E+02
      5.724  0.1650E-03  0.5800E+02
      5.772  0.4235E-01  0.5800E+02
      5.821  0.1895E+01  0.5809E+02
      5.870  0.1725E+02  0.5894E+02
      5.919  0.4281E+02  0.6102E+02
      5.967  0.4225E+02  0.6309E+02
      6.016  0.1686E+02  0.6391E+02
      6.065  0.1856E+01  0.6400E+02
      6.114  0.4143E-01  0.6400E+02
      6.163  0.1607E-03  0.6400E+02
      6.211  0.1009E-06  0.6400E+02
      6.260  0.1012E-10  0.6400E+02
      6.309  0.4344E-08  0.6400E+02
      6.358  0.1592E-04  0.6400E+02
      6.406  0.9481E-02  0.6400E+02
      6.455  0.9730E+00  0.6405E+02
      6.504  0.1925E+02  0.6499E+02
      6.553  0.8712E+02  0.6924E+02
      6.602  0.1039E+03  0.7431E+02
      6.650  0.3241E+02  0.7589E+02
      6.699  0.2282E+01  0.7600E+02
      6.748  0.3077E-01  0.7600E+02
      6.797  0.7128E-04  0.7600E+02
      6.845  0.2677E-07  0.7600E+02
      6.894  0.1575E-11  0.7600E+02
      6.943  0.0000E+00  0.7600E+02
      6.992  0.0000E+00  0.7600E+02
      7.041  0.2276E-14  0.7600E+02
      7.089  0.1177E-09  0.7600E+02
      7.138  0.8937E-06  0.7600E+02
      7.187  0.1100E-02  0.7600E+02
      7.236  0.2269E+00  0.7601E+02
      7.284  0.8230E+01  0.7641E+02
      7.333  0.5616E+02  0.7915E+02
      7.382  0.7686E+02  0.8290E+02
      7.431  0.2137E+02  0.8394E+02
      7.480  0.1148E+01  0.8400E+02
      7.528  0.1108E-01  0.8400E+02
      7.577  0.1816E-04  0.8400E+02
      7.626  0.4864E-08  0.8400E+02
      7.675  0.2094E-12  0.8400E+02
      7.723  0.0000E+00  0.8400E+02
      7.772  0.0000E+00  0.8400E+02
      7.821  0.0000E+00  0.8400E+02
      7.870  0.0000E+00  0.8400E+02
      7.919  0.0000E+00  0.8400E+02
      7.967  0.0000E+00  0.8400E+02
      8.016  0.0000E+00  0.8400E+02
