 running  120 mpi-ranks, on    1 nodes
 distrk:  each k-point on  120 cores,    1 groups
 distr:  one band on   20 cores,    6 groups
 vasp.6.4.3 19Mar24 (build Jul  4 2024 16:21:58) complex                         
 POSCAR found type information on POSCAR Si
 POSCAR found :  1 types and      16 ions
 scaLAPACK will be used
 LDA part: xc-table for (Slater+PW92), standard interpolation
 POSCAR, INCAR and KPOINTS ok, starting setup
 FFT: planning ... GRIDC
 FFT: planning ... GRID_SOFT
 FFT: planning ... GRID
 WAVECAR not read
 WARNING: random wavefunctions but no delay for mixing, default for NELMDL
 entering main loop
       N       E                     dE             d eps       ncg     rms          rms(c)
DAV:   1     0.182221908155E+03    0.18222E+03   -0.26623E+04    84   0.139E+03
DAV:   2    -0.499555418769E+02   -0.23218E+03   -0.22171E+03   108   0.176E+02
DAV:   3    -0.689593311091E+02   -0.19004E+02   -0.18058E+02   120   0.402E+01
DAV:   4    -0.694645345629E+02   -0.50520E+00   -0.50294E+00   108   0.785E+00
DAV:   5    -0.694752653876E+02   -0.10731E-01   -0.10730E-01   102   0.129E+00    0.155E+01
DAV:   6    -0.674863630195E+02    0.19889E+01   -0.95769E-01    84   0.322E+00    0.964E+00
DAV:   7    -0.666329633647E+02    0.85340E+00   -0.21735E+00    84   0.511E+00    0.814E-01
DAV:   8    -0.666731668097E+02   -0.40203E-01   -0.10219E-01    84   0.118E+00    0.202E-01
DAV:   9    -0.666807618413E+02   -0.75950E-02   -0.78490E-03    96   0.365E-01    0.172E-01
DAV:  10    -0.666821951820E+02   -0.14333E-02   -0.11334E-03    84   0.132E-01    0.614E-02
DAV:  11    -0.666824163975E+02   -0.22122E-03   -0.26308E-04    84   0.668E-02    0.201E-02
DAV:  12    -0.666824228355E+02   -0.64379E-05   -0.12205E-05    42   0.150E-02
   1 F= -.66682423E+02 E0= -.66682423E+02  d E =-.923067E-13
