phono3py:
  version: "3.5.2"
  frequency_unit_conversion_factor: 15.633302
  symmetry_tolerance: 1.00000e-05
  configuration:
    create_displacements: ".true."
    dim: "2 2 2"
    dim_fc2: "2 2 2"
    fc3_r0_average: ".true."

physical_unit:
  atomic_mass: "AMU"
  length: "angstrom"

space_group:
  type: "Fd-3m"
  number: 227
  Hall_symbol: "F 4d 2 3 -1d"

supercell_matrix:
- [   2,   0,   0 ]
- [   0,   2,   0 ]
- [   0,   0,   2 ]

primitive_cell:
  lattice:
  - [     0.000000000000000,     2.734313312463414,     2.734313312463414 ] # a
  - [     2.734313312463414,     0.000000000000000,     2.734313312463414 ] # b
  - [     2.734313312463414,     2.734313312463414,     0.000000000000000 ] # c
  points:
  - symbol: Si # 1
    coordinates: [  0.000000000000000,  0.000000000000000,  0.000000000000000 ]
    mass: 28.085500
  - symbol: Si # 2
    coordinates: [  0.250000000000000,  0.250000000000000,  0.250000000000000 ]
    mass: 28.085500
  reciprocal_lattice: # without 2pi
  - [    -0.182861268209800,     0.182861268209800,     0.182861268209800 ] # a*
  - [     0.182861268209800,    -0.182861268209800,     0.182861268209800 ] # b*
  - [     0.182861268209800,     0.182861268209800,    -0.182861268209800 ] # c*

unit_cell:
  lattice:
  - [     0.000000000000000,     2.734313312463414,     2.734313312463414 ] # a
  - [     2.734313312463414,     0.000000000000000,     2.734313312463414 ] # b
  - [     2.734313312463414,     2.734313312463414,    -0.000000000000000 ] # c
  points:
  - symbol: Si # 1
    coordinates: [  0.000000000000000,  0.000000000000000, -0.000000000000000 ]
    mass: 28.085500
    reduced_to: 1
  - symbol: Si # 2
    coordinates: [  0.250000000000000,  0.250000000000000,  0.250000000000000 ]
    mass: 28.085500
    reduced_to: 2

supercell:
  lattice:
  - [     0.000000000000000,     5.468626624926829,     5.468626624926829 ] # a
  - [     5.468626624926829,     0.000000000000000,     5.468626624926829 ] # b
  - [     5.468626624926829,     5.468626624926829,     0.000000000000000 ] # c
  points:
  - symbol: Si # 1
    coordinates: [  0.000000000000000,  0.000000000000000,  0.000000000000000 ]
    mass: 28.085500
    reduced_to: 1
  - symbol: Si # 2
    coordinates: [  0.500000000000000,  0.000000000000000,  0.000000000000000 ]
    mass: 28.085500
    reduced_to: 1
  - symbol: Si # 3
    coordinates: [  0.000000000000000,  0.500000000000000,  0.000000000000000 ]
    mass: 28.085500
    reduced_to: 1
  - symbol: Si # 4
    coordinates: [  0.500000000000000,  0.500000000000000,  0.000000000000000 ]
    mass: 28.085500
    reduced_to: 1
  - symbol: Si # 5
    coordinates: [  0.000000000000000,  0.000000000000000,  0.500000000000000 ]
    mass: 28.085500
    reduced_to: 1
  - symbol: Si # 6
    coordinates: [  0.500000000000000,  0.000000000000000,  0.500000000000000 ]
    mass: 28.085500
    reduced_to: 1
  - symbol: Si # 7
    coordinates: [  0.000000000000000,  0.500000000000000,  0.500000000000000 ]
    mass: 28.085500
    reduced_to: 1
  - symbol: Si # 8
    coordinates: [  0.500000000000000,  0.500000000000000,  0.500000000000000 ]
    mass: 28.085500
    reduced_to: 1
  - symbol: Si # 9
    coordinates: [  0.125000000000000,  0.125000000000000,  0.125000000000000 ]
    mass: 28.085500
    reduced_to: 9
  - symbol: Si # 10
    coordinates: [  0.625000000000000,  0.125000000000000,  0.125000000000000 ]
    mass: 28.085500
    reduced_to: 9
  - symbol: Si # 11
    coordinates: [  0.125000000000000,  0.625000000000000,  0.125000000000000 ]
    mass: 28.085500
    reduced_to: 9
  - symbol: Si # 12
    coordinates: [  0.625000000000000,  0.625000000000000,  0.125000000000000 ]
    mass: 28.085500
    reduced_to: 9
  - symbol: Si # 13
    coordinates: [  0.125000000000000,  0.125000000000000,  0.625000000000000 ]
    mass: 28.085500
    reduced_to: 9
  - symbol: Si # 14
    coordinates: [  0.625000000000000,  0.125000000000000,  0.625000000000000 ]
    mass: 28.085500
    reduced_to: 9
  - symbol: Si # 15
    coordinates: [  0.125000000000000,  0.625000000000000,  0.625000000000000 ]
    mass: 28.085500
    reduced_to: 9
  - symbol: Si # 16
    coordinates: [  0.625000000000000,  0.625000000000000,  0.625000000000000 ]
    mass: 28.085500
    reduced_to: 9

phonon_supercell_matrix:
- [   2,   0,   0 ]
- [   0,   2,   0 ]
- [   0,   0,   2 ]

phonon_primitive_cell:
  lattice:
  - [     0.000000000000000,     2.734313312463414,     2.734313312463414 ] # a
  - [     2.734313312463414,     0.000000000000000,     2.734313312463414 ] # b
  - [     2.734313312463414,     2.734313312463414,     0.000000000000000 ] # c
  points:
  - symbol: Si # 1
    coordinates: [  0.000000000000000,  0.000000000000000,  0.000000000000000 ]
    mass: 28.085500
  - symbol: Si # 2
    coordinates: [  0.250000000000000,  0.250000000000000,  0.250000000000000 ]
    mass: 28.085500
  reciprocal_lattice: # without 2pi
  - [    -0.182861268209800,     0.182861268209800,     0.182861268209800 ] # a*
  - [     0.182861268209800,    -0.182861268209800,     0.182861268209800 ] # b*
  - [     0.182861268209800,     0.182861268209800,    -0.182861268209800 ] # c*

phonon_supercell:
  lattice:
  - [     0.000000000000000,     5.468626624926829,     5.468626624926829 ] # a
  - [     5.468626624926829,     0.000000000000000,     5.468626624926829 ] # b
  - [     5.468626624926829,     5.468626624926829,     0.000000000000000 ] # c
  points:
  - symbol: Si # 1
    coordinates: [  0.000000000000000,  0.000000000000000,  0.000000000000000 ]
    mass: 28.085500
    reduced_to: 1
  - symbol: Si # 2
    coordinates: [  0.500000000000000,  0.000000000000000,  0.000000000000000 ]
    mass: 28.085500
    reduced_to: 1
  - symbol: Si # 3
    coordinates: [  0.000000000000000,  0.500000000000000,  0.000000000000000 ]
    mass: 28.085500
    reduced_to: 1
  - symbol: Si # 4
    coordinates: [  0.500000000000000,  0.500000000000000,  0.000000000000000 ]
    mass: 28.085500
    reduced_to: 1
  - symbol: Si # 5
    coordinates: [  0.000000000000000,  0.000000000000000,  0.500000000000000 ]
    mass: 28.085500
    reduced_to: 1
  - symbol: Si # 6
    coordinates: [  0.500000000000000,  0.000000000000000,  0.500000000000000 ]
    mass: 28.085500
    reduced_to: 1
  - symbol: Si # 7
    coordinates: [  0.000000000000000,  0.500000000000000,  0.500000000000000 ]
    mass: 28.085500
    reduced_to: 1
  - symbol: Si # 8
    coordinates: [  0.500000000000000,  0.500000000000000,  0.500000000000000 ]
    mass: 28.085500
    reduced_to: 1
  - symbol: Si # 9
    coordinates: [  0.125000000000000,  0.125000000000000,  0.125000000000000 ]
    mass: 28.085500
    reduced_to: 9
  - symbol: Si # 10
    coordinates: [  0.625000000000000,  0.125000000000000,  0.125000000000000 ]
    mass: 28.085500
    reduced_to: 9
  - symbol: Si # 11
    coordinates: [  0.125000000000000,  0.625000000000000,  0.125000000000000 ]
    mass: 28.085500
    reduced_to: 9
  - symbol: Si # 12
    coordinates: [  0.625000000000000,  0.625000000000000,  0.125000000000000 ]
    mass: 28.085500
    reduced_to: 9
  - symbol: Si # 13
    coordinates: [  0.125000000000000,  0.125000000000000,  0.625000000000000 ]
    mass: 28.085500
    reduced_to: 9
  - symbol: Si # 14
    coordinates: [  0.625000000000000,  0.125000000000000,  0.625000000000000 ]
    mass: 28.085500
    reduced_to: 9
  - symbol: Si # 15
    coordinates: [  0.125000000000000,  0.625000000000000,  0.625000000000000 ]
    mass: 28.085500
    reduced_to: 9
  - symbol: Si # 16
    coordinates: [  0.625000000000000,  0.625000000000000,  0.625000000000000 ]
    mass: 28.085500
    reduced_to: 9

phonon_displacements:
- atom:    1
  displacement:
    [  0.0000000000000000,  0.0212132034355964,  0.0212132034355964 ]
  displacement_id: 1


displacement_pairs:
- atom:    1
  displacement:
    [  0.0000000000000000,  0.0212132034355964,  0.0212132034355964 ]
  displacement_id: 1
  paired_with:
  - atom:    1
    pair_distance: 0.00000000
    displacements:
    - [  0.0212132034355964,  0.0000000000000000,  0.0212132034355964 ]
    - [ -0.0212132034355964,  0.0000000000000000, -0.0212132034355964 ]
    - [  0.0000000000000000,  0.0212132034355964,  0.0212132034355964 ]
    - [  0.0000000000000000, -0.0212132034355964, -0.0212132034355964 ]
    displacement_ids: [ 2, 3, 4, 5 ]
  - atom:    2
    pair_distance: 3.86690297
    displacements:
    - [  0.0212132034355964,  0.0000000000000000,  0.0212132034355964 ]
    - [ -0.0212132034355964,  0.0000000000000000, -0.0212132034355964 ]
    - [  0.0000000000000000,  0.0212132034355964,  0.0212132034355964 ]
    - [  0.0000000000000000, -0.0212132034355964, -0.0212132034355964 ]
    displacement_ids: [ 6, 7, 8, 9 ]
  - atom:    3
    pair_distance: 3.86690297
    displacements:
    - [  0.0000000000000000,  0.0212132034355964,  0.0212132034355964 ]
    - [  0.0000000000000000, -0.0212132034355964, -0.0212132034355964 ]
    - [  0.0212132034355964,  0.0000000000000000,  0.0212132034355964 ]
    - [ -0.0212132034355964,  0.0000000000000000, -0.0212132034355964 ]
    - [  0.0212132034355964,  0.0212132034355964,  0.0000000000000000 ]
    - [ -0.0212132034355964, -0.0212132034355964,  0.0000000000000000 ]
    displacement_ids: [ 10, 11, 12, 13, 14, 15 ]
  - atom:    4
    pair_distance: 3.86690297
    displacements:
    - [  0.0000000000000000,  0.0212132034355964,  0.0212132034355964 ]
    - [  0.0000000000000000, -0.0212132034355964, -0.0212132034355964 ]
    - [  0.0212132034355964,  0.0000000000000000,  0.0212132034355964 ]
    - [ -0.0212132034355964,  0.0000000000000000, -0.0212132034355964 ]
    - [  0.0212132034355964,  0.0212132034355964,  0.0000000000000000 ]
    - [ -0.0212132034355964, -0.0212132034355964,  0.0000000000000000 ]
    displacement_ids: [ 16, 17, 18, 19, 20, 21 ]
  - atom:    7
    pair_distance: 3.86690297
    displacements:
    - [  0.0212132034355964,  0.0000000000000000,  0.0212132034355964 ]
    - [ -0.0212132034355964,  0.0000000000000000, -0.0212132034355964 ]
    - [  0.0000000000000000,  0.0212132034355964,  0.0212132034355964 ]
    - [  0.0000000000000000, -0.0212132034355964, -0.0212132034355964 ]
    displacement_ids: [ 22, 23, 24, 25 ]
  - atom:    8
    pair_distance: 5.46862662
    displacements:
    - [  0.0212132034355964,  0.0000000000000000,  0.0212132034355964 ]
    - [ -0.0212132034355964,  0.0000000000000000, -0.0212132034355964 ]
    - [  0.0000000000000000,  0.0212132034355964,  0.0212132034355964 ]
    - [  0.0000000000000000, -0.0212132034355964, -0.0212132034355964 ]
    displacement_ids: [ 26, 27, 28, 29 ]
  - atom:    9
    pair_distance: 2.36798479
    displacements:
    - [  0.0212132034355964,  0.0000000000000000,  0.0212132034355964 ]
    - [ -0.0212132034355964,  0.0000000000000000, -0.0212132034355964 ]
    - [  0.0000000000000000,  0.0212132034355964,  0.0212132034355964 ]
    - [  0.0000000000000000, -0.0212132034355964, -0.0212132034355964 ]
    displacement_ids: [ 30, 31, 32, 33 ]
  - atom:   10
    pair_distance: 2.36798479
    displacements:
    - [  0.0212132034355964,  0.0000000000000000,  0.0212132034355964 ]
    - [ -0.0212132034355964,  0.0000000000000000, -0.0212132034355964 ]
    - [  0.0000000000000000,  0.0212132034355964,  0.0212132034355964 ]
    - [  0.0000000000000000, -0.0212132034355964, -0.0212132034355964 ]
    displacement_ids: [ 34, 35, 36, 37 ]
  - atom:   11
    pair_distance: 2.36798479
    displacements:
    - [  0.0000000000000000,  0.0212132034355964,  0.0212132034355964 ]
    - [  0.0000000000000000, -0.0212132034355964, -0.0212132034355964 ]
    - [  0.0212132034355964,  0.0000000000000000,  0.0212132034355964 ]
    - [ -0.0212132034355964,  0.0000000000000000, -0.0212132034355964 ]
    - [  0.0212132034355964,  0.0212132034355964,  0.0000000000000000 ]
    - [ -0.0212132034355964, -0.0212132034355964,  0.0000000000000000 ]
    displacement_ids: [ 38, 39, 40, 41, 42, 43 ]
  - atom:   12
    pair_distance: 4.53434566
    displacements:
    - [  0.0000000000000000,  0.0212132034355964,  0.0212132034355964 ]
    - [  0.0000000000000000, -0.0212132034355964, -0.0212132034355964 ]
    - [  0.0212132034355964,  0.0000000000000000,  0.0212132034355964 ]
    - [ -0.0212132034355964,  0.0000000000000000, -0.0212132034355964 ]
    - [  0.0212132034355964,  0.0212132034355964,  0.0000000000000000 ]
    - [ -0.0212132034355964, -0.0212132034355964,  0.0000000000000000 ]
    displacement_ids: [ 44, 45, 46, 47, 48, 49 ]
  - atom:   15
    pair_distance: 4.53434566
    displacements:
    - [  0.0212132034355964,  0.0000000000000000,  0.0212132034355964 ]
    - [ -0.0212132034355964,  0.0000000000000000, -0.0212132034355964 ]
    - [  0.0000000000000000,  0.0212132034355964,  0.0212132034355964 ]
    - [  0.0000000000000000, -0.0212132034355964, -0.0212132034355964 ]
    displacement_ids: [ 50, 51, 52, 53 ]
  - atom:   16
    pair_distance: 4.53434566
    displacements:
    - [  0.0212132034355964,  0.0000000000000000,  0.0212132034355964 ]
    - [ -0.0212132034355964,  0.0000000000000000, -0.0212132034355964 ]
    - [  0.0000000000000000,  0.0212132034355964,  0.0212132034355964 ]
    - [  0.0000000000000000, -0.0212132034355964, -0.0212132034355964 ]
    displacement_ids: [ 54, 55, 56, 57 ]

displacement_pair_info:
  number_of_singles: 1
  number_of_pairs: 56
  duplicated_supercell_ids: # 0 means perfect supercell
  - [ 5, 0 ]
